------------------------------------------------------------
          Invoking FHI-aims ...

          When using FHI-aims, please cite the following reference:

            Volker Blum, Ralf Gehrke, Felix Hanke, Paula Havu,
            Ville Havu, Xinguo Ren, Karsten Reuter, and Matthias Scheffler,
            'Ab Initio Molecular Simulations with Numeric Atom-Centered Orbitals',
            Computer Physics Communications 180, 2175-2196 (2009)

          In addition, many other developments in FHI-aims are likely important for
          your particular application. If so, please cite them. A partial list of references
          is written at the end of this file. Thank you for giving credit to the authors
          of these developments.

          For general information about FHI-aims please find us at

            https://fhi-aims.org

          Online tutorials can be found at

            https://fhi-aims-club.gitlab.io/tutorials/tutorials-overview/

          For any questions about FHI-aims, please visit our slack channel at

            https://fhi-aims.slack.com

          and our main development and support site at

            https://aims-git.rz-berlin.mpg.de .

          The latter site, in particular, has a wiki to collect information, as well
          as an issue tracker to log discussions, suggest improvements, and report issues
          or bugs. https://aims-git.rz-berlin.mpg.de is also the main development site
          of the project and all new and updated code versions can be obtained there.
          Please send an email to aims-coordinators@fhi-berlin.mpg.de and we will add
          you to these sites. They are for you and everyone is welcome there.

------------------------------------------------------------



  Date     :  20260302, Time     :  015626.233
  Time zero on CPU 1             :   0.232850000000000E-01  s.
  Internal wall clock time zero  :           541648586.233  s.

  FHI-aims created a unique identifier for this run for later identification
  aims_uuid : E52DEA45-BC36-423A-A1A1-697B7E75D377

  Build configuration of the current instance of FHI-aims
  -------------------------------------------------------
  FHI-aims version      : 250822
  Commit number         : GITDIR-NOTFOUND
  CMake host system     : Linux-6.17.0-14-generic
  CMake version         : 3.28.3
  OS Distribution       : Ubuntu 24.04.4 LTS
  Built on              : Intel(R) Core(TM) i9-10900KF CPU @ 3.70GHz
  Fortran compiler      : /usr/bin/mpif90 (GNU) version 13.3.0
  Fortran compiler flags: -O3 -march=native -mtune=native -fallow-argument-mismatch
  C compiler            : /usr/bin/mpicc (GNU) version 13.3.0
  C compiler flags      : -O3 -march=native -mtune=native -std=gnu11
  C++ compiler          : /usr/bin/mpicxx (GNU) version 13.3.0
  C++ compiler flags    : -O3 -march=native -mtune=native
  HIP compiler          :
  HIP compiler flags    :
  HIP GPU arch          :
  Using MPI
  Using ScaLAPACK
  Using LibXC
  Using i-PI
  Using RLSY
  Linking against: /opt/intel/oneapi/mkl/2025.0/lib/libmkl_scalapack_lp64.so
                   /opt/intel/oneapi/mkl/2025.0/lib/libmkl_blacs_openmpi_lp64.so
                   /opt/intel/oneapi/mkl/2025.0/lib/libmkl_intel_lp64.so
                   /opt/intel/oneapi/mkl/2025.0/lib/libmkl_sequential.so
                   /opt/intel/oneapi/mkl/2025.0/lib/libmkl_core.so
                   /usr/lib/x86_64-linux-gnu/libpthread.a
                   /usr/lib/x86_64-linux-gnu/libdl.a
                   /usr/lib/x86_64-linux-gnu/libm.so

  Using        8 parallel tasks.
  Task        0 on host cucciari-lab reporting.
  Task        1 on host cucciari-lab reporting.
  Task        2 on host cucciari-lab reporting.
  Task        3 on host cucciari-lab reporting.
  Task        4 on host cucciari-lab reporting.
  Task        5 on host cucciari-lab reporting.
  Task        6 on host cucciari-lab reporting.
  Task        7 on host cucciari-lab reporting.

  Obtaining array dimensions for all initial allocations:
  
  -----------------------------------------------------------------------
  Parsing control.in (first pass over file, find array dimensions only).
  The contents of control.in will be repeated verbatim below
  unless switched off by setting 'verbatim_writeout .false.' .
  in the first line of control.in .
  -----------------------------------------------------------------------
  
  #########################################################################################
  #
  #  Volker Blum, FHI 2008 : Test run input file control.in for simple H2O
  #
  #########################################################################################
  #
  #  Physical model
  #
    xc                 pbe
    spin               none
    relativistic      atomic_zora scalar
    charge             0.
  #
  #  SCF convergence
  #
    occupation_type    methfessel-paxton  0.1 1
    mixer              pulay
        n_max_pulay        10
        charge_mix_param   0.02
    sc_accuracy_rho    1E-2
    sc_accuracy_eev    1E-1
    sc_accuracy_etot   1E-2
    KS_method          parallel
    basis_threshold    1.e-5
    override_illconditioning .true.
  #
  #  Relaxation
  #
     relax_geometry   bfgs 3.0
  #   max_atomic_move 0.1
     external_pressure 150
     pressure_unit GPa
     relax_unit_cell full
     max_relaxation_steps 10
  #  output mulliken
  #
  ################################################################################
  #
  #  FHI-aims code project
  #  VB, Fritz-Haber Institut, 2009
  #
  #  Suggested "light" defaults for S atom (to be pasted into control.in file)
  #  Be sure to double-check any results obtained with these settings for post-processing,
  #  e.g., with the "tight" defaults and larger basis sets.
  #
  #  2020/09/08 Added f function to "light" after reinspection of Delta test outcomes.
  #             This was done for all of Al-Cl and is a tricky decision since it makes
  #             "light" calculations measurably more expensive for these elements.
  #             Nevertheless, outcomes for P, S, Cl (and to some extent, Si) appear
  #             to justify this choice.
  #
  ################################################################################
    species        S
  #     global species definitions
      nucleus             16
      mass                32.065
  #
      l_hartree           4
  #
      cut_pot             3.5          1.5  1.0
      basis_dep_cutoff    1e-4
  #
      radial_base         44 5.0
      radial_multiplier   1
      angular_grids       specified
        division   0.4665  110
        division   0.5810  194
        division   0.7139  302
  #      division   0.8274  434
  #      division   0.9105  590
  #      division   1.0975  770
  #      division   1.2028  974
  #      outer_grid  974
        outer_grid  302
  ################################################################################
  #
  #  Definition of "minimal" basis
  #
  ################################################################################
  #     valence basis states
      valence      3  s   2.
      valence      3  p   4.
  #     ion occupancy
      ion_occ      3  s   1.
      ion_occ      3  p   3.
  ################################################################################
  #
  #  Suggested additional basis functions. For production calculations,
  #  uncomment them one after another (the most important basis functions are
  #  listed first).
  #
  #  Constructed for dimers: 1.6 A, 1.9 A, 2.5 A, 3.25 A, 4.0 A
  #
  ################################################################################
  #  "First tier" - improvements: -652.81 meV to -45.53 meV
       ionic 3 d auto
       hydro 2 p 1.8
       hydro 4 f 7
       ionic 3 s auto
  #  "Second tier" - improvements: -30.20 meV to -1.74 meV
  #     hydro 4 d 6.2
  #     hydro 5 g 10.8
  #     hydro 4 p 4.9
  #     hydro 5 f 10
  #     hydro 1 s 0.8
  #  "Third tier" - improvements: -1.04 meV to -0.20 meV
  #     hydro 3 d 3.9
  #     hydro 3 d 2.7
  #     hydro 5 g 12
  #     hydro 4 p 10.4
  #     hydro 5 f 12.4
  #     hydro 2 s 1.9
  #  "Fourth tier" - improvements: -0.35 meV to -0.06 meV
  #     hydro 4 d 10.4
  #     hydro 4 p 7.2
  #     hydro 4 d 10
  #     hydro 5 g 19.2
  #     hydro 4 s 12
  
  ################################################################################
  #
  #  FHI-aims code project
  #  VB, Fritz-Haber Institut, 2009
  #
  #  Suggested "light" defaults for H atom (to be pasted into control.in file)
  #  Be sure to double-check any results obtained with these settings for post-processing,
  #  e.g., with the "tight" defaults and larger basis sets.
  #
  ################################################################################
    species        H
  #     global species definitions
      nucleus             1
      mass                1.00794
  #
      l_hartree           4
  #
      cut_pot             3.5  1.5  1.0
      basis_dep_cutoff    1e-4
  #
      radial_base         24 5.0
      radial_multiplier   1
      angular_grids       specified
        division   0.2421   50
        division   0.3822  110
        division   0.4799  194
        division   0.5341  302
  #      division   0.5626  434
  #      division   0.5922  590
  #      division   0.6542  770
  #      division   0.6868 1202
  #      outer_grid  770
        outer_grid  302
  ################################################################################
  #
  #  Definition of "minimal" basis
  #
  ################################################################################
  #     valence basis states
      valence      1  s   1.
  #     ion occupancy
      ion_occ      1  s   0.5
  ################################################################################
  #
  #  Suggested additional basis functions. For production calculations,
  #  uncomment them one after another (the most important basis functions are
  #  listed first).
  #
  #  Basis constructed for dimers: 0.5 A, 0.7 A, 1.0 A, 1.5 A, 2.5 A
  #
  ################################################################################
  #  "First tier" - improvements: -1014.90 meV to -62.69 meV
       hydro 2 s 2.1
       hydro 2 p 3.5
  #  "Second tier" - improvements: -12.89 meV to -1.83 meV
  #     hydro 1 s 0.85
  #     hydro 2 p 3.7
  #     hydro 2 s 1.2
  #     hydro 3 d 7
  #  "Third tier" - improvements: -0.25 meV to -0.12 meV
  #     hydro 4 f 11.2
  #     hydro 3 p 4.8
  #     hydro 4 d 9
  #     hydro 3 s 3.2
  k_grid 5 2 2
  
  -----------------------------------------------------------------------
  Completed first pass over input file control.in .
  -----------------------------------------------------------------------
  
  
  -----------------------------------------------------------------------
  Parsing geometry.in (first pass over file, find array dimensions only).
  The contents of geometry.in will be repeated verbatim below
  unless switched off by setting 'verbatim_writeout .false.' .
  in the first line of geometry.in .
  -----------------------------------------------------------------------
  
  #===============================================================================
  # Created using the Atomic Simulation Environment (ASE)
  
  # Mon Mar  2 01:56:25 2026
  
  #=======================================================
  lattice_vector 1.8616619999999999 0.0000000000000000 0.0000000000000000
  lattice_vector -0.4365520100000000 5.5435508100000002 0.0000000000000000
  lattice_vector -0.8022145400000000 -2.7127365800000001 6.4227604400000002
  atom 0.0000000000000000 0.0000000000000000 0.0000000000000000 H
  atom -0.3463081718799357 2.8017985951799771 3.5823149955605951 H
  atom 0.9692036218799357 0.0290156348200228 2.8404454444394052 H
  atom 0.7125549950000000 2.7717754050000001 0.0000000000000000 S
  
  -----------------------------------------------------------------------
  Completed first pass over input file geometry.in .
  -----------------------------------------------------------------------
  

  Basic array size parameters:
  | Number of species                 :        2
  | Number of atoms                   :        4
  | Number of lattice vectors         :        3
  | Max. basis fn. angular momentum   :        3
  | Max. atomic/ionic basis occupied n:        3
  | Max. number of basis fn. types    :        3
  | Max. radial fns per species/type  :        5
  | Max. logarithmic grid size        :     1357
  | Max. radial integration grid size :       44
  | Max. angular integration grid size:      302
  | Max. angular grid division number :        8
  | Radial grid for Hartree potential :     1357
  | Number of spin channels           :        1

  Definition of standardized fundamental physical constants in this FHI-aims run:
  | Using the set of values used in FHI-aims up to 2024, which combines values from
  | different CODATA sets - see constants.f90.
  | Use the 'codata' keyword in control.in to change this selection.

  Memory overcommitment is allowed on your operating system.

------------------------------------------------------------
          Reading file control.in.
------------------------------------------------------------
  XC: Using PBE gradient-corrected functionals.
  Spin treatment: No spin polarisation.
  Scalar relativistic treatment of kinetic energy: on-site free-atom approximation to ZORA.
  Charge =   0.000000E+00: Neutral system requested explicitly.
  Occupation type: Methfessel-Paxton broadening, width =   0.100000E+00 eV, N =    1
  Using pulay charge density mixing.
  Pulay mixing - number of memorized iterations:   10
  Charge density mixing - mixing parameter:     0.0200
  Convergence accuracy of self-consistent charge density:  0.1000E-01
  Convergence accuracy of sum of eigenvalues:  0.1000E+00
  Convergence accuracy of total energy:  0.1000E-01
  Kohn-Sham electronic structure solved by the ELSI library.
  Threshold for basis singularities:  0.1000E-04
  override_illconditioning: Explicitly overriding any built-in checks for an ill-conditioned overlap matrix.
** WARNING:
  ***  If you use this flag, you should really know what you are doing.
** END OF WARNING
** WARNING:
  *** DO NOT keep this flag set by default in all your control.in files.
** END OF WARNING
  Geometry relaxation: Modified BFGS - TRM (trust radius method) for lattice optimization.
  Convergence accuracy for geometry relaxation: Maximum force <   0.300000E+01 eV/A.
  pressure_unit: Unit for the external pressure set to GPa.
  Maximum steps for geometry relaxation:       10

  Reading configuration options for species S                   .
  | Found nuclear charge :  16.0000
  | Found atomic mass :    32.064999999999998      amu
  | Found l_max for Hartree potential  :   4
  | Found cutoff potl. onset [A], width [A], scale factor :    3.50000    1.50000    1.00000
  | Threshold for basis-dependent cutoff potential is   0.100000E-03
  | Found data for basic radial integration grid :    44 points, outermost radius =    5.000 A
  | Found multiplier for basic radial grid :   1
  | Found angular grid specification: user-specified.
  | Specified grid contains     4 separate shells.
  | Check grid settings after all constraints further below.
  | Found free-atom valence shell :  3 s   2.000
  | Found free-atom valence shell :  3 p   4.000
  | Found free-ion valence shell :  3 s   1.000
  | Found free-ion valence shell :  3 p   3.000
  | Found ionic basis function :  3 d , default cutoff radius.
  | Found hydrogenic basis function :  2 p   1.800
  | Found hydrogenic basis function :  4 f   7.000
  | Found ionic basis function :  3 s , default cutoff radius.
 | Encountered keyword species, ending the description of species S                   .
  Species S                   : Missing cutoff potential type.
  Defaulting to exp(1/x)/(1-x)^2 type cutoff potential.
  Species S : No 'logarithmic' tag. Using default grid for free atom:
  | Default logarithmic grid data [bohr] : 0.1000E-03 0.1000E+03 0.1012E+01
  | Will include ionic basis functions of  2.0-fold positive S                    ion.
  Species S : On-site basis accuracy parameter (for Gram-Schmidt orthonormalisation) not specified.
  Using default value basis_acc =  0.1000000E-03.
  Species S                   : Using default innermost maximum threshold i_radial=  2 for radial functions.
  Species S                   : Default cutoff onset for free atom density etc. : 0.35000000E+01 AA.
  Species S                   : Basic radial grid will be enhanced according to radial_multiplier =   1, to contain    44 grid points.

  Reading configuration options for species H                   .
  | Found nuclear charge :   1.0000
  | Found atomic mass :    1.0079400000000001      amu
  | Found l_max for Hartree potential  :   4
  | Found cutoff potl. onset [A], width [A], scale factor :    3.50000    1.50000    1.00000
  | Threshold for basis-dependent cutoff potential is   0.100000E-03
  | Found data for basic radial integration grid :    24 points, outermost radius =    5.000 A
  | Found multiplier for basic radial grid :   1
  | Found angular grid specification: user-specified.
  | Specified grid contains     5 separate shells.
  | Check grid settings after all constraints further below.
  | Found free-atom valence shell :  1 s   1.000
  | Found free-ion valence shell :  1 s   0.500
  | Found hydrogenic basis function :  2 s   2.100
  | Found hydrogenic basis function :  2 p   3.500
 | Encountered keyword k_grid, ending the description of species H                   .
  Species H                   : Missing cutoff potential type.
  Defaulting to exp(1/x)/(1-x)^2 type cutoff potential.
  Species H : No 'logarithmic' tag. Using default grid for free atom:
  | Default logarithmic grid data [bohr] : 0.1000E-03 0.1000E+03 0.1012E+01
  Species H : On-site basis accuracy parameter (for Gram-Schmidt orthonormalisation) not specified.
  Using default value basis_acc =  0.1000000E-03.
  Species H                   : Using default innermost maximum threshold i_radial=  2 for radial functions.
  Species H                   : Default cutoff onset for free atom density etc. : 0.35000000E+01 AA.
  Species H                   : Basic radial grid will be enhanced according to radial_multiplier =   1, to contain    24 grid points.
  Found k-point grid:         5         2         2

  Finished reading input file 'control.in'.

------------------------------------------------------------


------------------------------------------------------------
          Reading geometry description geometry.in.
------------------------------------------------------------
  | The smallest distance between any two atoms is         1.86166200 AA.
  | The first atom of this pair is atom number                      1 .
  | The second atom of this pair is atom number                     1 .
  | Wigner-Seitz cell of the first atom image           1     0     0 .
  | (The Wigner-Seitz cell of the second atom is 0 0 0  by definition.)

  Symmetry information by spglib:
  | Precision set to  0.1E-04
  | Number of Operations  : 2
  | Space group           : 2
  | International         : P-1
  | Schoenflies           : Ci^1
  Input structure read successfully.
  The structure contains        4 atoms,  and a total of         19.000 electrons.

  Input geometry:
  | Unit cell:
  |        1.86166200        0.00000000        0.00000000
  |       -0.43655201        5.54355081        0.00000000
  |       -0.80221454       -2.71273658        6.42276044
  | Atomic structure:
  |       Atom                x [A]            y [A]            z [A]
  |    1: Species H             0.00000000        0.00000000        0.00000000
  |    2: Species H            -0.34630817        2.80179860        3.58231500
  |    3: Species H             0.96920362        0.02901563        2.84044544
  |    4: Species S             0.71255499        2.77177541        0.00000000

  Lattice parameters for 3D lattice (in Angstroms) :     1.861662    5.560713    7.018144
  Angle(s) between unit vectors (in degrees)       :   112.108715   96.563586   94.502723


  Quantities derived from the lattice vectors (in Angstrom^-1):
  | Reciprocal lattice vector 1:  3.375041  0.265783  0.533806
  | Reciprocal lattice vector 2: -0.000000  1.133423  0.478716
  | Reciprocal lattice vector 3: -0.000000  0.000000  0.978269
  | Unit cell volume                               :   0.662843E+02  Angstrom^3

  Fractional coordinates:
                         L1                L2                L3
       atom_frac         0.00000000        0.00000000        0.00000000  H
       atom_frac         0.23684258        0.77835239        0.55775317  H
       atom_frac         0.76315742        0.22164761        0.44224683  H
       atom_frac         0.50000000        0.50000000        0.00000000  S

  Slab Identifier: This seems to be a bulk system.

  Finished reading input file 'geometry.in'.



  Consistency checks for stacksize environment parameter are next.

  | Maximum stacksize for task 0: unlimited
  | Maximum stacksize for task 1: unlimited
  | Maximum stacksize for task 2: unlimited
  | Maximum stacksize for task 3: unlimited
  | Maximum stacksize for task 4: unlimited
  | Maximum stacksize for task 5: unlimited
  | Maximum stacksize for task 6: unlimited
  | Maximum stacksize for task 7: unlimited
  | Current stacksize for task 0: unlimited
  | Current stacksize for task 1: unlimited
  | Current stacksize for task 2: unlimited
  | Current stacksize for task 3: unlimited
  | Current stacksize for task 4: unlimited
  | Current stacksize for task 5: unlimited
  | Current stacksize for task 6: unlimited
  | Current stacksize for task 7: unlimited

  Consistency checks for the contents of control.in are next.

  MPI_IN_PLACE appears to work with this MPI implementation.
  | Keeping use_mpi_in_place .true. (see manual).
  Target number of points in a grid batch is not set. Defaulting to  100
  Method for grid partitioning is not set. Defaulting to parallel hash+maxmin partitioning.
  Batch size limit is not set. Defaulting to    200
  By default, will store active basis functions for each batch.
  If in need of memory, prune_basis_once .false. can be used to disable this option.
  communication_type for Hartree potential was not specified.
  Defaulting to calc_hartree .
  Pulay mixer: Number of initial linear mixing iterations not set.
  Defaulting to    0 iterations.
  Work space size for distributed Hartree potential not set.
  Defaulting to   0.200000E+03 MB.
  Algorithm-dependent basis array size parameters:
  | n_max_pulay                         :       10
  Maximum number of self-consistency iterations not provided.
  Presetting  1000 iterations.
  Presetting      1001 iterations before the initial mixing cycle
  is restarted anyway using the sc_init_iter criterion / keyword.
  Presetting a factor      1.000 between actual scf density residual
  and density convergence criterion sc_accuracy_rho below which sc_init_iter
  takes no effect.
  Default initial Hessian is Lindh matrix (thres = 15.00) plus  0.200000E+01 eV/A^2 times unity.
  No maximum energy tolerance for TRM/BFGS moves, defaulting to   0.150000E-02
  Maximum energy tolerance by which TRM/BFGS trajectory may increase over multiple steps:   0.300000E-02
  No harmonic length scale. Defaulting to   0.250000E-01 A.
  No trust radius initializer. Defaulting to   0.200000E+00 A.
  External pressure of  0.936E+00 eV/A**3 ( 0.150E+03 GPa) is applied to system.
  Unit cell relaxation: Unit cell will be relaxed fully.
  Unit cell relaxation: Analytical stress will be used.
  Analytical stress will be computed.
  Analytical stress calculation: Only the upper triangle is calculated.
                                 Final output is symmetrized.
  Analytical stress calculation: scf convergence accuracy of stress not set.
                                 Analytical stress self-consistency will not be checked explicitly.
                                 Be sure to set other criteria like sc_accuracy_rho tight enough.
  Forces evaluation will include force correction term due to incomplete self-consistency (default).
  Force calculation: scf convergence accuracy of forces not set.
  Defaulting to 'sc_accuracy_forces not_checked'.
  Handling of forces: Unphysical translation and rotation will be removed from forces.
  No accuracy limit for integral partition fn. given. Defaulting to  0.1000E-14.
  No threshold value for u(r) in integrations given. Defaulting to  0.1000E-05.
  No accuracy for occupation numbers given. Defaulting to  0.1000E-12.
  No threshold value for occupation numbers given. Defaulting to  0.0000E+00.
  No accuracy for fermi level given. Defaulting to  0.1000E-19.
  Maximum # of iterations to find E_F not set. Defaulting to  200.
 * You have    20 k-points in your system, but only     8 MPI-tasks available.
 * In this case using ScaLAPACK is not necessary / supported.
 * Switching to LAPACK (via ELSI) instead.
  Will not use alltoall communication since running on < 1024 CPUs.
  partition_type (choice of integration weights) for integrals was not specified.
  | Using a version of the partition function of Stratmann and coworkers ('stratmann_sparse').
  | At each grid point, the set of atoms used to build the partition table is smoothly restricted to
  | only those atoms whose free-atom density would be non-zero at that grid point.
  Partitioning for Hartree potential was not defined. Using partition_type for integrals.
  | Adjusted default value of keyword multip_moments_threshold to:       0.10000000E-11
  | This value may affect high angular momentum components of the Hartree potential in periodic systems.
  Using 2025 definition of centers list for evaluation of the Stratmann partition function.
  No q(lm)/r^(l+1) cutoff set for long-range Hartree potential.
  | Using default value of  0.100000E-09 .
  | Verify using the multipole_threshold keyword.
  Defaulting to new monopole extrapolation.
  Density update method: automatic selection selected.
  Using density matrix based charge density update.
  Using density matrix based charge density update.
  Using packed matrix style: index .
  Threshold of packed matrixes:  0.000000E+00
  Geometry relaxation: A file "geometry.in.next_step" is written out by default after each step.
  | This file contains the geometry of the current relaxation step as well as
  | the current Hessian matrix needed to restart the relaxation algorithm.
  | If you do not want part or all of this information, use the keywords
  | "write_restart_geometry" or "hessian_to_restart_geometry" to switch the output off.
  Defaulting to use time-reversal symmetry for k-point grid.
  Charge integration errors on the 3D integration grid will be compensated
  by explicit normalization and distribution of residual charges.
  Use the "compensate_multipole_errors" flag to change this behaviour.
  Set 'collect_eigenvectors' to be '.true.' for all serial calculations. This is mandatory.
  Set 'collect_eigenvectors' to be '.true.' for KS_method lapack_fast and serial.
  Found potential conflicts with setting 'use_local_index' for this calculation. Will not set it.

  Consistency checks for the contents of geometry.in are next.


  Range separation radius for Ewald summation (hartree_convergence_parameter):      3.62506530 bohr.
  Number of empty states per atom not set in control.in - providing a guess from actual geometry.
  | Total number of empty states used during s.c.f. cycle:        8
  If you use a very high smearing, use empty_states (per atom!) in control.in to increase this value.

  Structure-dependent array size parameters: 
  | Maximum number of distinct radial functions  :       12
  | Maximum number of basis functions            :       40
  | Number of Kohn-Sham states (occupied + empty):       18
------------------------------------------------------------

  Checking k-grid inconsistencies now:
  | k-point density for reciprocal lattice vector 1 is    1.46 nkpts / Angstrom^-1
  | k-point density for reciprocal lattice vector 2 is    1.63 nkpts / Angstrom^-1
  | k-point density for reciprocal lattice vector 3 is    2.04 nkpts / Angstrom^-1

  | Ratio of k-point densities for reciprocal lattice vectors 1 vs 2 is    0.90
  | Ratio of k-point densities for reciprocal lattice vectors 1 vs 3 is    0.71
  | Ratio of k-point densities for reciprocal lattice vectors 2 vs 3 is    0.80

  * The specified k_grid leads to a nearly homogenous k-grid density in non-vacuum directions,
  * and seems sensible.

  | Checks passed.
  After read_input_data [GB]:     22.44

  Performing system and environment tests:
  | Environment variable OMP_NUM_THREADS correctly set to 1.
  | Checking for ScaLAPACK...
  | Testing pdtran()...
  | All pdtran() tests passed.
  | Testing CPU compatibility for run-time vs. build-time.
  | Reading /proc/cpuinfo for CPU information ...
  | Built for  : Intel(R) Core(TM) i9-10900KF CPU @ 3.70GHz
  | Running on : Intel(R) Core(TM) i9-10900KF CPU @ 3.70GHz
  | Runtime CPU compatibility verified.
  
  After prepare_system [GB]:     22.41

------------------------------------------------------------
          Preparing all fixed parts of the calculation.
------------------------------------------------------------
  Determining machine precision:
     2.2250738585072014E-308
  Setting up grids for atomic and cluster calculations.

  Creating wave function, potential, and density for free atoms.
  Runtime choices for atomic solver:
  | atomic solver xc        : PBE
  | compute density gradient: 1
  | compute kinetic density : F

  Species: S

  List of occupied orbitals and eigenvalues:
    n    l              occ      energy [Ha]    energy [eV]
    1    0           2.0000       -88.678258     -2413.0582
    2    0           2.0000        -7.779365      -211.6873
    3    0           2.0000        -0.631865       -17.1939
    2    1           6.0000        -5.749610      -156.4549
    3    1           4.0000        -0.255301        -6.9471


  Species: H

  List of occupied orbitals and eigenvalues:
    n    l              occ      energy [Ha]    energy [eV]
    1    0           1.0000        -0.237593        -6.4652


  Adding cutoff potential to free-atom effective potential.
  Creating fixed part of basis set: Ionic, confined, hydrogenic.

  S                    ion:

  List of free ionic orbitals and eigenvalues:
    n    l      energy [Ha]    energy [eV]
    1    0       -89.703778     -2440.9640
    2    0        -8.775428      -238.7916
    3    0        -1.470343       -40.0101
    2    1        -6.747660      -183.6132
    3    1        -1.048627       -28.5346


  List of ionic basis orbitals and eigenvalues:
    n    l      energy [Ha]    energy [eV]    outer radius [A]
    3    2        -0.495221       -13.4756       4.539062
    3    0        -1.470325       -40.0096       3.642502


  S                    hydrogenic:

  List of hydrogenic basis orbitals: 
    n    l      effective z      eigenvalue [eV]  inner max. [A]     outer max. [A]     outer radius [A]   
    2    1         1.800000       -10.9749           1.168531           1.168531           4.594893
    4    3         7.000000       -41.6658           1.212182           1.212182           4.539062


  H                    hydrogenic:

  List of hydrogenic basis orbitals: 
    n    l      effective z      eigenvalue [eV]  inner max. [A]     outer max. [A]     outer radius [A]   
    2    0         2.100000       -14.9728           0.193243           1.317208           4.583499
    2    1         3.500000       -41.6669           0.602369           0.602369           3.723403

  Creating atomic-like basis functions for current effective potential.

  Species S                   :

  List of atomic basis orbitals and eigenvalues:
    n    l      energy [Ha]    energy [eV]    outer radius [A]
    1    0       -88.678258     -2413.0582       0.682391
    2    0        -7.779365      -211.6873       2.289014
    3    0        -0.631865       -17.1939       4.483910
    2    1        -5.749610      -156.4549       2.555240
    3    1        -0.255301        -6.9471       4.539062


  Species H                   :

  List of atomic basis orbitals and eigenvalues:
    n    l      energy [Ha]    energy [eV]    outer radius [A]
    1    0        -0.237593        -6.4652       4.527807

  Assembling full basis from fixed parts.
  | Species S :   atomic orbital   1 s accepted.
  | Species S :   atomic orbital   2 s accepted.
  | Species S :    ionic orbital   3 s accepted.
  | Species S :   atomic orbital   3 s accepted.
  | Species S :   atomic orbital   2 p accepted.
  | Species S :   atomic orbital   3 p accepted.
  | Species S :    hydro orbital   2 p accepted.
  | Species S :    ionic orbital   3 d accepted.
  | Species S :    hydro orbital   4 f accepted.
  | Species H :   atomic orbital   1 s accepted.
  | Species H :    hydro orbital   2 s accepted.
  | Species H :    hydro orbital   2 p accepted.

  Basis size parameters after reduction:
  | Total number of radial functions:       12
  | Total number of basis functions :       40

  Per-task memory consumption for arrays in subroutine allocate_ext:
  |           4.170560MB.
  Testing on-site integration grid accuracy.
  |  Species  Function  <phi|h_atom|phi> (log., in eV)  <phi|h_atom|phi> (rad., in eV)
           1        1              -2413.0581659109              -2413.0570554886
           1        2               -211.6872814127               -211.6872738937
           1        3                -16.9208611991                -16.9208255642
           1        4                  7.5845503345                  7.5614252779
           1        5               -156.4548540501               -156.4548540107
           1        6                 -6.9485729304                 -6.9508389945
           1        7                  7.5803076288                  7.5258504832 ***
           1        8                  6.1173006980                  6.1127563631
           1        9                 24.7512183535                 24.7503558869
           2       10                 -6.4664147733                 -6.4652229287
           2       11                 13.7099062243                 13.7158503352
           2       12                 25.2661739479                 25.2663166526
 * Note: Onsite integrals marked "***" above are less accurate than
 * onsite_accuracy_threshold =    0.03000 eV. Usually, this is harmless.
 * When in doubt, tighten the "radial" and/or "radial_multiplier" flags to check.

  Preparing densities etc. for the partition functions (integrals / Hartree potential).

  Preparations completed.
  max(cpu_time)          :      0.126 s.
  Wall clock time (cpu1) :      0.126 s.
------------------------------------------------------------
  After prepare_scf [GB]:     22.08

  Initializing index lists of integration centers etc. from given atomic structure:
  Mapping all atomic coordinates to central unit cell.

  Initializing the k-points
  Using symmetry for reducing the k-points
  | k-points reduced from:       20 to       12
  | Number of k-points                             :        12
  The eigenvectors in the calculations are COMPLEX.
  | K-points in task   0:         1
  | K-points in task   1:         2
  | K-points in task   2:         2
  | K-points in task   3:         2
  | K-points in task   4:         2
  | K-points in task   5:         1
  | K-points in task   6:         1
  | K-points in task   7:         1
  | Number of basis functions in the Hamiltonian integrals       :      1085
  | Number of basis functions in a single unit cell              :        40
  | Number of centers in hartree potential                       :       981
  | Number of centers in hartree multipole                       :       492
  | Number of centers in electron density summation              :       357
  | Number of centers in basis integrals                         :       376
  | Number of centers in integrals                               :       145
  | Number of centers in hamiltonian                             :       357
  | Number of centers in partition table from touching 0-cell    :       145
  | Number of centers in partition table total                   :       376
  | Consuming         26 KiB for k_phase.
  | Number of super-cells (origin) [n_cells]                     :        1197
  | Number of super-cells (after PM_index) [n_cells]             :         140
  | Number of super-cells in hamiltonian [n_cells_in_hamiltonian]:         140
  | Size of matrix packed + index [n_hamiltonian_matrix_size]    :       33579
  After initialize_bc_dependent_lists [GB]:     22.08

------------------------------------------------------------
          Begin self-consistency loop: Initialization.

          Date     :  20260302, Time     :  015626.393
------------------------------------------------------------

  Initializing relaxation algorithms.
  Finished initialization of distributed Hessian storage.
  | Global dimension:        21
  | BLACS block size:         3
  | Number of workers:        7

  Available memory per node after initialize_hartree_non_periodic_ewald [GB]:     22.08
  | Estimated reciprocal-space cutoff momentum G_max:         2.58388453 bohr^-1 .
  | Reciprocal lattice points for long-range Hartree potential:     140
  Available memory per node after initialize_recip_hartree_potential [GB]:     22.08
  Available memory per node after initialize_scalapack [GB]:     22.08
  Available memory per node after aims_elsi_init_scf [GB]:     22.08
  Available memory per node after initialize_fixed_grids [GB]:     22.08
  Partitioning the integration grid into batches with parallel hashing+maxmin method.
  | Number of batches:      271
  | Maximal batch size:     125
  | Minimal batch size:      52
  | Average batch size:      85.122
  | Standard deviation of batch sizes:      23.643

  Integration load balanced across     8 MPI tasks.
  Work distribution over tasks is as follows:
  Task     0 has       2854 integration points.
  Task     1 has       2893 integration points.
  Task     2 has       2887 integration points.
  Task     3 has       2908 integration points.
  Task     4 has       2869 integration points.
  Task     5 has       2893 integration points.
  Task     6 has       2877 integration points.
  Task     7 has       2887 integration points.
  Available memory per node after partition_grid [GB]:     22.08
  Initializing partition tables, free-atom densities, potentials, etc. across the integration grid (initialize_grid_storage).
  | initialize_grid_storage: Actual outermost partition radius vs. multipole_radius_free
  | (-- VB: in principle, multipole_radius_free should be larger, hence this output)
  | Species        1: Confinement radius =              4.999999999999999 AA, multipole_radius_free =              5.005414751018925 AA.
  | Species        1: outer_partition_radius set to              5.005414751018925 AA .
  | Species        2: Confinement radius =              4.999999999999999 AA, multipole_radius_free =              5.054417573612229 AA.
  | Species        2: outer_partition_radius set to              5.054417573612229 AA .
  | The sparse table of interatomic distances needs        604.24 kbyte instead of      1131.01 kbyte of memory.
  | Net number of integration points:    23068
  | of which are non-zero points    :    20020
  | Numerical average free-atom electrostatic potential    :     -5.08278092 eV
  Available memory per node after initialize_grid_storage_p1 [GB]:     22.08
  Renormalizing the initial density to the exact electron count on the 3D integration grid.
  | Initial density: Formal number of electrons (from input files) :      19.0000000000
  | Integrated number of electrons on 3D grid     :      19.0007314798
  | Charge integration error                      :       0.0007314798
  | Normalization factor for density and gradient :       0.9999615025
  Renormalizing the free-atom superposition density to the exact electron count on the 3D integration grid.
  | Formal number of electrons (from input files) :      19.0000000000
  | Integrated number of electrons on 3D grid     :      19.0007314798
  | Charge integration error                      :       0.0007314798
  | Normalization factor for density and gradient :       0.9999615025
  Obtaining max. number of non-zero basis functions in each batch (get_n_compute_maxes).
  | Maximal number of non-zero basis functions:      345 in task     0
  | Maximal number of non-zero basis functions:      334 in task     1
  | Maximal number of non-zero basis functions:      337 in task     2
  | Maximal number of non-zero basis functions:      347 in task     3
  | Maximal number of non-zero basis functions:      309 in task     4
  | Maximal number of non-zero basis functions:      323 in task     5
  | Maximal number of non-zero basis functions:      334 in task     6
  | Maximal number of non-zero basis functions:      325 in task     7
  Available memory per node after get_n_compute_maxes_p1 [GB]:     22.08
  Allocating        0.011 MB for KS_eigenvector_complex
  Available memory per node after allocate_matrices [GB]:     22.08
  Available memory per node after init_comm_sparse_local_matrix_scalapack [GB]:     22.08
  Integrating Hamiltonian matrix: batch-based integration.
  Time summed over all CPUs for integration: real work        0.290 s, elapsed        0.297 s
  Available memory per node after integrate hamiltonian matrix [GB]:     22.08
  Integrating overlap matrix.
  Time summed over all CPUs for integration: real work        0.160 s, elapsed        0.162 s
  Available memory per node after integrate ovlp matrix [GB]:     22.08
  Available memory per node after ASI_callbacks invoke [GB]:     22.08
  Available memory per node after save_overlap_scalapack [GB]:     22.08

  Updating Kohn-Sham eigenvalues and eigenvectors using ELSI and the (modified) LAPACK eigensolver.
  Singularity check in k-point 8, task 0 (analysis for other k-points/tasks may follow below):
  Overlap matrix is not singular
  | Lowest and highest eigenvalues :  0.5801E-02,  0.2110E+01
  Finished singularity check of overlap matrix
  | Time :     0.000 s
  Starting LAPACK eigensolver
  Finished Cholesky decomposition
  | Time :     0.000 s
  Finished transformation to standard eigenproblem
  | Time :     0.000 s
  Finished solving standard eigenproblem
  | Time :     0.000 s
  Finished back-transformation of eigenvectors
  | Time :     0.000 s

  Obtaining occupation numbers and electronic chemical potential using ELSI.
  | Note that, for insulating systems, the printed 'chemical potential' value is not uniquely defined.
  | It can be anywhere in the energy gap, as long as it correctly separates occupied and unoccupied states.
  | In systems with a gap, the physically relevant chemical potential is the VBM or HOMO.

  | Chemical potential (Fermi level):    -5.92917784 eV
  Available memory per node after advance_KS_solution [GB]:     22.08
  Writing Kohn-Sham eigenvalues.
  K-point:       1 at    0.000000    0.000000    0.000000 (in units of recip. lattice)

  State    Occupation    Eigenvalue [Ha]    Eigenvalue [eV]
      1       2.00000         -88.704989        -2413.78556
      2       2.00000          -7.810789         -212.54239
      3       2.00000          -5.783933         -157.38882
      4       2.00000          -5.778256         -157.23433
      5       2.00000          -5.778215         -157.23324
      6       2.00000          -0.878451          -23.90387
      7       2.00000          -0.415909          -11.31746
      8       2.00000          -0.412614          -11.22780
      9       2.00000          -0.377821          -10.28104
     10       2.00000          -0.333095           -9.06397
     11       2.00000          -0.308517           -8.39519
     12       0.00000           0.039026            1.06196
     13       0.00000           0.068281            1.85803
     14       0.00000           0.131467            3.57739
     15       0.00000           0.144934            3.94385
     16       0.00000           0.204676            5.56951
     17       0.00000           0.408222           11.10829
     18       0.00000           0.499068           13.58034

  What follows are estimated values for band gap, HOMO, LUMO, etc.
  | They are estimated on a discrete k-point grid and not necessarily exact.
  | For converged numbers, create a DOS and/or band structure plot on a denser k-grid.

  Highest occupied state (VBM) at     -5.93075110 eV (relative to internal zero)
  | Occupation number:      1.02662496
  | K-point:      10 at    0.400000    0.500000    0.000000 (in units of recip. lattice)

  Lowest unoccupied state (CBM) at    -5.92760457 eV (relative to internal zero)
  | Occupation number:      0.97337508
  | K-point:      11 at    0.600000    0.500000    0.500000 (in units of recip. lattice)

  This system has fractional occupation numbers. Since we use a finite k-point grid,
  this material is metallic within the approximate finite broadening function (occupation_type)
  applied to determine the occupation numbers. We conclude: there is no gap in this system.
  ESTIMATED overall HOMO-LUMO gap:      0.00000000 eV.
  Calculating total energy contributions from superposition of free atom densities.

  Total energy components:
  | Sum of eigenvalues            :        -231.56839889 Ha       -6301.29674020 eV
  | XC energy correction          :         -26.48150914 Ha        -720.59852739 eV
  | XC potential correction       :          34.22393416 Ha         931.28063147 eV
  | Free-atom electrostatic energy:        -177.48105975 Ha       -4829.50535837 eV
  | Hartree energy correction     :          -0.00000000 Ha          -0.00000000 eV
  | Entropy correction            :          -0.00031088 Ha          -0.00845935 eV
  | ---------------------------
  | Total energy                  :        -401.30703362 Ha      -10920.11999449 eV
  | Total energy, T -> 0          :        -401.30744812 Ha      -10920.13127362 eV  <-- do not rely on this value for anything but (periodic) metals
  | Electronic free energy        :        -401.30765537 Ha      -10920.13691319 eV

  Derived energy quantities:
  | Kinetic energy                :         402.80909639 Ha       10960.99320206 eV
  | Electrostatic energy          :        -777.63462088 Ha      -21160.51466916 eV
  | Energy correction for multipole
  | error in Hartree potential    :           0.00000000 Ha           0.00000000 eV
  | Sum of eigenvalues per atom                           :       -1575.32418505 eV
  | Total energy (T->0) per atom                          :       -2730.03281841 eV  <-- do not rely on this value for anything but (periodic) metals
  | Electronic free energy per atom                       :       -2730.03422830 eV
  Initialize hartree_potential_storage
  Max. number of atoms included in rho_multipole:            4

  End scf initialization - timings             :  max(cpu_time)    wall_clock(cpu1)
  | Time for scf. initialization                :        0.173 s           0.173 s
  | Boundary condition initialization           :        0.014 s           0.014 s
  | Relaxation initialization                   :        0.000 s           0.000 s
  | Integration                                 :        0.058 s           0.058 s
  | Solution of K.-S. eqns.                     :        0.001 s           0.002 s
  | Grid partitioning                           :        0.017 s           0.017 s
  | Preloading free-atom quantities on grid     :        0.087 s           0.087 s
  | Free-atom superposition energy              :        0.008 s           0.009 s
  | Total energy evaluation                     :        0.000 s           0.000 s

  Partial memory accounting:
  | Current value for overall tracked memory usage:
  |   Minimum:        0.695 MB (on task 7)
  |   Maximum:        0.706 MB (on task 1)
  |   Average:        0.701 MB
  | Peak value for overall tracked memory usage:
  |   Minimum:        2.326 MB (on task 4 after allocating wave)
  |   Maximum:        2.626 MB (on task 3 after allocating wave)
  |   Average:        2.498 MB
  | Largest tracked array allocation so far:
  |   Minimum:        0.728 MB (hamiltonian_shell on task 4)
  |   Maximum:        0.919 MB (hamiltonian_shell on task 3)
  |   Average:        0.841 MB
  Note:  These values currently only include a subset of arrays which are explicitly tracked.
  The "true" memory usage will be greater.
------------------------------------------------------------
  Available memory after initialize_scf [GB]:     22.08
  Available memory after allocating mixing [GB]:     22.08
  Evaluating new KS density using the density matrix
  Evaluating density matrix
  Time summed over all CPUs for getting density from density matrix: real work        0.473 s, elapsed        0.480 s
  Integration grid: deviation in total charge (<rho> - N_e) =  -8.526513E-14

  Time for density update prior                :  max(cpu_time)    wall_clock(cpu1)
  | self-consistency iterative process          :        0.061 s           0.061 s
  Available memory before start of SCF loop [GB]:     22.08

------------------------------------------------------------
          Begin self-consistency iteration #    1

  Date     :  20260302, Time     :  015626.627
------------------------------------------------------------
  Pulay mixing of updated and previous charge densities.
  Available memory per node after mixing [GB]:     22.08
  Renormalizing the density to the exact electron count on the 3D integration grid.
  | Formal number of electrons (from input files) :      19.0000000000
  | Integrated number of electrons on 3D grid     :      19.0000000000
  | Charge integration error                      :       0.0000000000
  | Normalization factor for density and gradient :       1.0000000000

  Evaluating partitioned Hartree potential by multipole expansion.
  | Original multipole sum: apparent total charge =   0.582813E-14
  | Sum of charges compensated after spline to logarithmic grids =   0.718329E-05
  | Analytical far-field extrapolation by fixed multipoles:
  | Hartree multipole sum: apparent total charge =   0.581429E-14
  Summing up the Hartree potential.
  Time summed over all CPUs for potential: real work        0.019 s, elapsed        0.019 s
  | RMS charge density error from multipole expansion :   0.784934E-04
  | Average real-space part of the electrostatic potential :     -0.00165767 eV

  Integrating Hamiltonian matrix: batch-based integration.
  Time summed over all CPUs for integration: real work        0.290 s, elapsed        0.296 s

  Updating Kohn-Sham eigenvalues and eigenvectors using ELSI and the (modified) LAPACK eigensolver.
  Starting LAPACK eigensolver
  Finished Cholesky decomposition
  | Time :     0.000 s
  Finished transformation to standard eigenproblem
  | Time :     0.000 s
  Finished solving standard eigenproblem
  | Time :     0.000 s
  Finished back-transformation of eigenvectors
  | Time :     0.000 s

  Obtaining occupation numbers and electronic chemical potential using ELSI.
  | Note that, for insulating systems, the printed 'chemical potential' value is not uniquely defined.
  | It can be anywhere in the energy gap, as long as it correctly separates occupied and unoccupied states.
  | In systems with a gap, the physically relevant chemical potential is the VBM or HOMO.

  | Chemical potential (Fermi level):    -6.00142256 eV
  Writing Kohn-Sham eigenvalues.
  K-point:       1 at    0.000000    0.000000    0.000000 (in units of recip. lattice)

  State    Occupation    Eigenvalue [Ha]    Eigenvalue [eV]
      1       2.00000         -88.711508        -2413.96296
      2       2.00000          -7.816790         -212.70567
      3       2.00000          -5.789972         -157.55316
      4       2.00000          -5.784303         -157.39890
      5       2.00000          -5.784272         -157.39805
      6       2.00000          -0.882973          -24.02692
      7       2.00000          -0.419568          -11.41702
      8       2.00000          -0.416479          -11.33296
      9       2.00000          -0.376184          -10.23649
     10       2.00000          -0.331860           -9.03036
     11       2.00000          -0.306206           -8.33229
     12       0.00000           0.036398            0.99044
     13       0.00000           0.065484            1.78190
     14       0.00000           0.130401            3.54840
     15       0.00000           0.142021            3.86459
     16       0.00000           0.203128            5.52738
     17       0.00000           0.403379           10.97650
     18       0.00000           0.498545           13.56611

  What follows are estimated values for band gap, HOMO, LUMO, etc.
  | They are estimated on a discrete k-point grid and not necessarily exact.
  | For converged numbers, create a DOS and/or band structure plot on a denser k-grid.

  Highest occupied state (VBM) at     -6.00271362 eV (relative to internal zero)
  | Occupation number:      1.02185000
  | K-point:      10 at    0.400000    0.500000    0.000000 (in units of recip. lattice)

  Lowest unoccupied state (CBM) at    -6.00013152 eV (relative to internal zero)
  | Occupation number:      0.97815029
  | K-point:      11 at    0.600000    0.500000    0.500000 (in units of recip. lattice)

  This system has fractional occupation numbers. Since we use a finite k-point grid,
  this material is metallic within the approximate finite broadening function (occupation_type)
  applied to determine the occupation numbers. We conclude: there is no gap in this system.
  ESTIMATED overall HOMO-LUMO gap:      0.00000000 eV.

  Total energy components:
  | Sum of eigenvalues            :        -231.64580483 Ha       -6303.40306308 eV
  | XC energy correction          :         -26.47984551 Ha        -720.55325759 eV
  | XC potential correction       :          34.22166458 Ha         931.21887314 eV
  | Free-atom electrostatic energy:        -177.48105975 Ha       -4829.50535837 eV
  | Hartree energy correction     :           0.08109277 Ha           2.20664657 eV
  | Entropy correction            :          -0.00031092 Ha          -0.00846049 eV
  | ---------------------------
  | Total energy                  :        -401.30395274 Ha      -10920.03615933 eV
  | Total energy, T -> 0          :        -401.30436729 Ha      -10920.04743998 eV  <-- do not rely on this value for anything but (periodic) metals
  | Electronic free energy        :        -401.30457457 Ha      -10920.05308030 eV

  Derived energy quantities:
  | Kinetic energy                :         402.79697697 Ha       10960.66341576 eV
  | Electrostatic energy          :        -777.62108420 Ha      -21160.14631750 eV
  | Energy correction for multipole
  | error in Hartree potential    :           0.00005360 Ha           0.00145861 eV
  | Sum of eigenvalues per atom                           :       -1575.85076577 eV
  | Total energy (T->0) per atom                          :       -2730.01185999 eV  <-- do not rely on this value for anything but (periodic) metals
  | Electronic free energy per atom                       :       -2730.01327008 eV
  Evaluating new KS density using the density matrix
  Evaluating density matrix
  Time summed over all CPUs for getting density from density matrix: real work        0.469 s, elapsed        0.479 s
  Integration grid: deviation in total charge (<rho> - N_e) =  -2.131628E-14

  Self-consistency convergence accuracy:
  | Change of charge density      :  0.9755E-01
  | Change of unmixed KS density  :  0.2887E+02
  | Change of sum of eigenvalues  : -0.2106E+01 eV
  | Change of total energy        :  0.8384E-01 eV


------------------------------------------------------------
  End self-consistency iteration #     1       :  max(cpu_time)    wall_clock(cpu1)
  | Time for this iteration                     :        0.120 s           0.120 s
  | Charge density update                       :        0.060 s           0.060 s
  | Density mixing                              :        0.000 s           0.000 s
  | Hartree multipole update                    :        0.000 s           0.001 s
  | Hartree multipole summation                 :        0.021 s           0.020 s
  | Integration                                 :        0.037 s           0.038 s
  | Solution of K.-S. eqns.                     :        0.001 s           0.001 s
  | Total energy evaluation                     :        0.000 s           0.000 s

  Partial memory accounting:
  | Current value for overall tracked memory usage:
  |   Minimum:        2.633 MB (on task 0)
  |   Maximum:        2.681 MB (on task 3)
  |   Average:        2.659 MB
  | Peak value for overall tracked memory usage:
  |   Minimum:        5.151 MB (on task 4 after allocating gradient_basis_wave)
  |   Maximum:        5.585 MB (on task 3 after allocating gradient_basis_wave)
  |   Average:        5.398 MB
  | Largest tracked array allocation so far:
  |   Minimum:        0.884 MB (gradient_basis_wave on task 4)
  |   Maximum:        0.993 MB (gradient_basis_wave on task 3)
  |   Average:        0.949 MB
  Note:  These values currently only include a subset of arrays which are explicitly tracked.
  The "true" memory usage will be greater.
------------------------------------------------------------

------------------------------------------------------------
          Begin self-consistency iteration #    2

  Date     :  20260302, Time     :  015626.747
------------------------------------------------------------
  Pulay mixing of updated and previous charge densities.
  Available memory per node after mixing [GB]:     22.08
  Renormalizing the density to the exact electron count on the 3D integration grid.
  | Formal number of electrons (from input files) :      19.0000000000
  | Integrated number of electrons on 3D grid     :      19.0000000000
  | Charge integration error                      :      -0.0000000000
  | Normalization factor for density and gradient :       1.0000000000

  Evaluating partitioned Hartree potential by multipole expansion.
  | Original multipole sum: apparent total charge =  -0.127416E-13
  | Sum of charges compensated after spline to logarithmic grids =   0.165791E-03
  | Analytical far-field extrapolation by fixed multipoles:
  | Hartree multipole sum: apparent total charge =  -0.126432E-13
  Summing up the Hartree potential.
  Time summed over all CPUs for potential: real work        0.023 s, elapsed        0.024 s
  | RMS charge density error from multipole expansion :   0.179652E-02
  | Average real-space part of the electrostatic potential :     -0.03788380 eV

  Integrating Hamiltonian matrix: batch-based integration.
  Time summed over all CPUs for integration: real work        0.290 s, elapsed        0.295 s

  Updating Kohn-Sham eigenvalues and eigenvectors using ELSI and the (modified) LAPACK eigensolver.
  Starting LAPACK eigensolver
  Finished Cholesky decomposition
  | Time :     0.000 s
  Finished transformation to standard eigenproblem
  | Time :     0.000 s
  Finished solving standard eigenproblem
  | Time :     0.000 s
  Finished back-transformation of eigenvectors
  | Time :     0.000 s

  Obtaining occupation numbers and electronic chemical potential using ELSI.
  | Note that, for insulating systems, the printed 'chemical potential' value is not uniquely defined.
  | It can be anywhere in the energy gap, as long as it correctly separates occupied and unoccupied states.
  | In systems with a gap, the physically relevant chemical potential is the VBM or HOMO.

  | Chemical potential (Fermi level):    -6.71018439 eV
  What follows are estimated values for band gap, HOMO, LUMO, etc.
  | They are estimated on a discrete k-point grid and not necessarily exact.
  | For converged numbers, create a DOS and/or band structure plot on a denser k-grid.

  Highest occupied state (VBM) at     -6.74141275 eV (relative to internal zero)
  | Occupation number:      1.50106350
  | K-point:       2 at    0.000000    0.000000    0.500000 (in units of recip. lattice)

  Lowest unoccupied state (CBM) at    -6.65733135 eV (relative to internal zero)
  | Occupation number:      0.22927303
  | K-point:       5 at    0.200000    0.000000    0.000000 (in units of recip. lattice)

  This system has fractional occupation numbers. Since we use a finite k-point grid,
  this material is metallic within the approximate finite broadening function (occupation_type)
  applied to determine the occupation numbers. We conclude: there is no gap in this system.
  ESTIMATED overall HOMO-LUMO gap:      0.00000000 eV.

  Checking to see if s.c.f. parameters should be adjusted.

  Total energy components:
  | Sum of eigenvalues            :        -233.39145285 Ha       -6350.90456265 eV
  | XC energy correction          :         -26.44752978 Ha        -719.67390198 eV
  | XC potential correction       :          34.17736296 Ha         930.01336460 eV
  | Free-atom electrostatic energy:        -177.48105975 Ha       -4829.50535837 eV
  | Hartree energy correction     :           1.78716398 Ha          48.63120627 eV
  | Entropy correction            :          -0.00015371 Ha          -0.00418263 eV
  | ---------------------------
  | Total energy                  :        -401.35551545 Ha      -10921.43925213 eV
  | Total energy, T -> 0          :        -401.35572040 Ha      -10921.44482897 eV  <-- do not rely on this value for anything but (periodic) metals
  | Electronic free energy        :        -401.35582287 Ha      -10921.44761739 eV

  Derived energy quantities:
  | Kinetic energy                :         402.41495258 Ha       10950.26800314 eV
  | Electrostatic energy          :        -777.32293825 Ha      -21152.03335328 eV
  | Energy correction for multipole
  | error in Hartree potential    :           0.00124479 Ha           0.03387250 eV
  | Sum of eigenvalues per atom                           :       -1587.72614066 eV
  | Total energy (T->0) per atom                          :       -2730.36120724 eV  <-- do not rely on this value for anything but (periodic) metals
  | Electronic free energy per atom                       :       -2730.36190435 eV
  Evaluating new KS density using the density matrix
  Evaluating density matrix
  Time summed over all CPUs for getting density from density matrix: real work        0.477 s, elapsed        0.488 s
  Integration grid: deviation in total charge (<rho> - N_e) =   2.131628E-14

  Self-consistency convergence accuracy:
  | Change of charge density      :  0.9404E-01
  | Change of unmixed KS density  :  0.2364E-02
  | Change of sum of eigenvalues  : -0.4750E+02 eV
  | Change of total energy        : -0.1403E+01 eV


------------------------------------------------------------
  End self-consistency iteration #     2       :  max(cpu_time)    wall_clock(cpu1)
  | Time for this iteration                     :        0.127 s           0.127 s
  | Charge density update                       :        0.062 s           0.062 s
  | Density mixing                              :        0.000 s           0.001 s
  | Hartree multipole update                    :        0.000 s           0.000 s
  | Hartree multipole summation                 :        0.026 s           0.026 s
  | Integration                                 :        0.037 s           0.037 s
  | Solution of K.-S. eqns.                     :        0.001 s           0.001 s
  | Total energy evaluation                     :        0.000 s           0.000 s

  Partial memory accounting:
  | Current value for overall tracked memory usage:
  |   Minimum:        2.634 MB (on task 0)
  |   Maximum:        2.682 MB (on task 3)
  |   Average:        2.660 MB
  | Peak value for overall tracked memory usage:
  |   Minimum:        5.152 MB (on task 4 after allocating gradient_basis_wave)
  |   Maximum:        5.586 MB (on task 3 after allocating gradient_basis_wave)
  |   Average:        5.399 MB
  | Largest tracked array allocation so far:
  |   Minimum:        0.884 MB (gradient_basis_wave on task 4)
  |   Maximum:        0.993 MB (gradient_basis_wave on task 3)
  |   Average:        0.949 MB
  Note:  These values currently only include a subset of arrays which are explicitly tracked.
  The "true" memory usage will be greater.
------------------------------------------------------------

------------------------------------------------------------
          Begin self-consistency iteration #    3

  Date     :  20260302, Time     :  015626.874
------------------------------------------------------------
  Pulay mixing of updated and previous charge densities.
  Available memory per node after mixing [GB]:     22.08
  Renormalizing the density to the exact electron count on the 3D integration grid.
  | Formal number of electrons (from input files) :      19.0000000000
  | Integrated number of electrons on 3D grid     :      19.0000000000
  | Charge integration error                      :       0.0000000000
  | Normalization factor for density and gradient :       1.0000000000

  Evaluating partitioned Hartree potential by multipole expansion.
  | Original multipole sum: apparent total charge =   0.396024E-14
  | Sum of charges compensated after spline to logarithmic grids =   0.102706E-03
  | Analytical far-field extrapolation by fixed multipoles:
  | Hartree multipole sum: apparent total charge =   0.368966E-14
  Summing up the Hartree potential.
  Time summed over all CPUs for potential: real work        0.023 s, elapsed        0.023 s
  | RMS charge density error from multipole expansion :   0.111279E-02
  | Average real-space part of the electrostatic potential :     -0.02341041 eV

  Integrating Hamiltonian matrix: batch-based integration.
  Time summed over all CPUs for integration: real work        0.292 s, elapsed        0.296 s

  Updating Kohn-Sham eigenvalues and eigenvectors using ELSI and the (modified) LAPACK eigensolver.
  Starting LAPACK eigensolver
  Finished Cholesky decomposition
  | Time :     0.000 s
  Finished transformation to standard eigenproblem
  | Time :     0.000 s
  Finished solving standard eigenproblem
  | Time :     0.000 s
  Finished back-transformation of eigenvectors
  | Time :     0.000 s

  Obtaining occupation numbers and electronic chemical potential using ELSI.
  | Note that, for insulating systems, the printed 'chemical potential' value is not uniquely defined.
  | It can be anywhere in the energy gap, as long as it correctly separates occupied and unoccupied states.
  | In systems with a gap, the physically relevant chemical potential is the VBM or HOMO.

  | Chemical potential (Fermi level):    -6.81525486 eV
  What follows are estimated values for band gap, HOMO, LUMO, etc.
  | They are estimated on a discrete k-point grid and not necessarily exact.
  | For converged numbers, create a DOS and/or band structure plot on a denser k-grid.

  Highest occupied state (VBM) at     -6.81849008 eV (relative to internal zero)
  | Occupation number:      1.05472640
  | K-point:       9 at    0.400000    0.000000    0.500000 (in units of recip. lattice)

  Lowest unoccupied state (CBM) at    -6.81417312 eV (relative to internal zero)
  | Occupation number:      0.98169201
  | K-point:       8 at    0.400000    0.000000    0.000000 (in units of recip. lattice)

  This system has fractional occupation numbers. Since we use a finite k-point grid,
  this material is metallic within the approximate finite broadening function (occupation_type)
  applied to determine the occupation numbers. We conclude: there is no gap in this system.
  ESTIMATED overall HOMO-LUMO gap:      0.00000000 eV.

  Total energy components:
  | Sum of eigenvalues            :        -232.62332999 Ha       -6330.00287608 eV
  | XC energy correction          :         -26.46086334 Ha        -720.03672664 eV
  | XC potential correction       :          34.19566132 Ha         930.51128853 eV
  | Free-atom electrostatic energy:        -177.48105975 Ha       -4829.50535837 eV
  | Hartree energy correction     :           1.07228981 Ha          29.17849025 eV
  | Entropy correction            :          -0.00102932 Ha          -0.02800931 eV
  | ---------------------------
  | Total energy                  :        -401.29730195 Ha      -10919.85518230 eV
  | Total energy, T -> 0          :        -401.29867439 Ha      -10919.89252805 eV  <-- do not rely on this value for anything but (periodic) metals
  | Electronic free energy        :        -401.29936060 Ha      -10919.91120092 eV

  Derived energy quantities:
  | Kinetic energy                :         402.61805539 Ha       10955.79471186 eV
  | Electrostatic energy          :        -777.45449400 Ha      -21155.61316752 eV
  | Energy correction for multipole
  | error in Hartree potential    :           0.00077285 Ha           0.02103033 eV
  | Sum of eigenvalues per atom                           :       -1582.50071902 eV
  | Total energy (T->0) per atom                          :       -2729.97313201 eV  <-- do not rely on this value for anything but (periodic) metals
  | Electronic free energy per atom                       :       -2729.97780023 eV
  Evaluating new KS density using the density matrix
  Evaluating density matrix
  Time summed over all CPUs for getting density from density matrix: real work        0.482 s, elapsed        0.493 s
  Integration grid: deviation in total charge (<rho> - N_e) =  -8.171241E-14

  Self-consistency convergence accuracy:
  | Change of charge density      :  0.2492E+00
  | Change of unmixed KS density  :  0.2936E+00
  | Change of sum of eigenvalues  :  0.2090E+02 eV
  | Change of total energy        :  0.1584E+01 eV


------------------------------------------------------------
  End self-consistency iteration #     3       :  max(cpu_time)    wall_clock(cpu1)
  | Time for this iteration                     :        0.127 s           0.127 s
  | Charge density update                       :        0.062 s           0.062 s
  | Density mixing                              :        0.001 s           0.001 s
  | Hartree multipole update                    :        0.000 s           0.000 s
  | Hartree multipole summation                 :        0.025 s           0.025 s
  | Integration                                 :        0.037 s           0.038 s
  | Solution of K.-S. eqns.                     :        0.001 s           0.001 s
  | Total energy evaluation                     :        0.000 s           0.000 s

  Partial memory accounting:
  | Current value for overall tracked memory usage:
  |   Minimum:        2.634 MB (on task 0)
  |   Maximum:        2.682 MB (on task 3)
  |   Average:        2.660 MB
  | Peak value for overall tracked memory usage:
  |   Minimum:        5.152 MB (on task 4 after allocating gradient_basis_wave)
  |   Maximum:        5.586 MB (on task 3 after allocating gradient_basis_wave)
  |   Average:        5.399 MB
  | Largest tracked array allocation so far:
  |   Minimum:        0.884 MB (gradient_basis_wave on task 4)
  |   Maximum:        0.993 MB (gradient_basis_wave on task 3)
  |   Average:        0.949 MB
  Note:  These values currently only include a subset of arrays which are explicitly tracked.
  The "true" memory usage will be greater.
------------------------------------------------------------

------------------------------------------------------------
          Begin self-consistency iteration #    4

  Date     :  20260302, Time     :  015627.001
------------------------------------------------------------
  Pulay mixing of updated and previous charge densities.
  Available memory per node after mixing [GB]:     22.08
  Renormalizing the density to the exact electron count on the 3D integration grid.
  | Formal number of electrons (from input files) :      19.0000000000
  | Integrated number of electrons on 3D grid     :      19.0000000000
  | Charge integration error                      :       0.0000000000
  | Normalization factor for density and gradient :       1.0000000000

  Evaluating partitioned Hartree potential by multipole expansion.
  | Original multipole sum: apparent total charge =   0.105524E-13
  | Sum of charges compensated after spline to logarithmic grids =   0.994470E-04
  | Analytical far-field extrapolation by fixed multipoles:
  | Hartree multipole sum: apparent total charge =   0.107492E-13
  Summing up the Hartree potential.
  Time summed over all CPUs for potential: real work        0.023 s, elapsed        0.023 s
  | RMS charge density error from multipole expansion :   0.107723E-02
  | Average real-space part of the electrostatic potential :     -0.02266664 eV

  Integrating Hamiltonian matrix: batch-based integration.
  Time summed over all CPUs for integration: real work        0.295 s, elapsed        0.299 s

  Updating Kohn-Sham eigenvalues and eigenvectors using ELSI and the (modified) LAPACK eigensolver.
  Starting LAPACK eigensolver
  Finished Cholesky decomposition
  | Time :     0.000 s
  Finished transformation to standard eigenproblem
  | Time :     0.000 s
  Finished solving standard eigenproblem
  | Time :     0.000 s
  Finished back-transformation of eigenvectors
  | Time :     0.000 s

  Obtaining occupation numbers and electronic chemical potential using ELSI.
  | Note that, for insulating systems, the printed 'chemical potential' value is not uniquely defined.
  | It can be anywhere in the energy gap, as long as it correctly separates occupied and unoccupied states.
  | In systems with a gap, the physically relevant chemical potential is the VBM or HOMO.

  | Chemical potential (Fermi level):    -6.76925466 eV
  What follows are estimated values for band gap, HOMO, LUMO, etc.
  | They are estimated on a discrete k-point grid and not necessarily exact.
  | For converged numbers, create a DOS and/or band structure plot on a denser k-grid.

  Highest occupied state (VBM) at     -6.78698672 eV (relative to internal zero)
  | Occupation number:      1.29495321
  | K-point:       8 at    0.400000    0.000000    0.000000 (in units of recip. lattice)

  Lowest unoccupied state (CBM) at    -6.76614433 eV (relative to internal zero)
  | Occupation number:      0.94738373
  | K-point:       9 at    0.400000    0.000000    0.500000 (in units of recip. lattice)

  This system has fractional occupation numbers. Since we use a finite k-point grid,
  this material is metallic within the approximate finite broadening function (occupation_type)
  applied to determine the occupation numbers. We conclude: there is no gap in this system.
  ESTIMATED overall HOMO-LUMO gap:      0.00000000 eV.

  Total energy components:
  | Sum of eigenvalues            :        -232.58385228 Ha       -6328.92863289 eV
  | XC energy correction          :         -26.46160154 Ha        -720.05681401 eV
  | XC potential correction       :          34.19667311 Ha         930.53882065 eV
  | Free-atom electrostatic energy:        -177.48105975 Ha       -4829.50535837 eV
  | Hartree energy correction     :           1.03375890 Ha          28.13001081 eV
  | Entropy correction            :          -0.00091681 Ha          -0.02494766 eV
  | ---------------------------
  | Total energy                  :        -401.29608156 Ha      -10919.82197380 eV
  | Total energy, T -> 0          :        -401.29730398 Ha      -10919.85523735 eV  <-- do not rely on this value for anything but (periodic) metals
  | Electronic free energy        :        -401.29791518 Ha      -10919.87186913 eV

  Derived energy quantities:
  | Kinetic energy                :         402.62694383 Ha       10956.03657855 eV
  | Electrostatic energy          :        -777.46142385 Ha      -21155.80173834 eV
  | Energy correction for multipole
  | error in Hartree potential    :           0.00074831 Ha           0.02036246 eV
  | Sum of eigenvalues per atom                           :       -1582.23215822 eV
  | Total energy (T->0) per atom                          :       -2729.96380934 eV  <-- do not rely on this value for anything but (periodic) metals
  | Electronic free energy per atom                       :       -2729.96796728 eV
  Evaluating new KS density using the density matrix
  Evaluating density matrix
  Time summed over all CPUs for getting density from density matrix: real work        0.490 s, elapsed        0.505 s
  Integration grid: deviation in total charge (<rho> - N_e) =   2.131628E-14

  Self-consistency convergence accuracy:
  | Change of charge density      :  0.1146E+00
  | Change of unmixed KS density  :  0.1284E+00
  | Change of sum of eigenvalues  :  0.1074E+01 eV
  | Change of total energy        :  0.3321E-01 eV


------------------------------------------------------------
  End self-consistency iteration #     4       :  max(cpu_time)    wall_clock(cpu1)
  | Time for this iteration                     :        0.129 s           0.129 s
  | Charge density update                       :        0.064 s           0.063 s
  | Density mixing                              :        0.001 s           0.001 s
  | Hartree multipole update                    :        0.000 s           0.000 s
  | Hartree multipole summation                 :        0.025 s           0.026 s
  | Integration                                 :        0.038 s           0.037 s
  | Solution of K.-S. eqns.                     :        0.001 s           0.001 s
  | Total energy evaluation                     :        0.000 s           0.000 s

  Partial memory accounting:
  | Current value for overall tracked memory usage:
  |   Minimum:        2.634 MB (on task 0)
  |   Maximum:        2.682 MB (on task 3)
  |   Average:        2.660 MB
  | Peak value for overall tracked memory usage:
  |   Minimum:        5.152 MB (on task 4 after allocating gradient_basis_wave)
  |   Maximum:        5.586 MB (on task 3 after allocating gradient_basis_wave)
  |   Average:        5.399 MB
  | Largest tracked array allocation so far:
  |   Minimum:        0.884 MB (gradient_basis_wave on task 4)
  |   Maximum:        0.993 MB (gradient_basis_wave on task 3)
  |   Average:        0.949 MB
  Note:  These values currently only include a subset of arrays which are explicitly tracked.
  The "true" memory usage will be greater.
------------------------------------------------------------

------------------------------------------------------------
          Begin self-consistency iteration #    5

  Date     :  20260302, Time     :  015627.130
------------------------------------------------------------
  Pulay mixing of updated and previous charge densities.
  Available memory per node after mixing [GB]:     22.07
  Renormalizing the density to the exact electron count on the 3D integration grid.
  | Formal number of electrons (from input files) :      19.0000000000
  | Integrated number of electrons on 3D grid     :      19.0000000000
  | Charge integration error                      :      -0.0000000000
  | Normalization factor for density and gradient :       1.0000000000

  Evaluating partitioned Hartree potential by multipole expansion.
  | Original multipole sum: apparent total charge =  -0.131844E-13
  | Sum of charges compensated after spline to logarithmic grids =   0.102770E-03
  | Analytical far-field extrapolation by fixed multipoles:
  | Hartree multipole sum: apparent total charge =  -0.134796E-13
  Summing up the Hartree potential.
  Time summed over all CPUs for potential: real work        0.023 s, elapsed        0.024 s
  | RMS charge density error from multipole expansion :   0.112322E-02
  | Average real-space part of the electrostatic potential :     -0.02370011 eV

  Integrating Hamiltonian matrix: batch-based integration.
[...]
  Finished transformation to standard eigenproblem
  | Time :     0.000 s
  Finished solving standard eigenproblem
  | Time :     0.000 s
  Finished back-transformation of eigenvectors
  | Time :     0.000 s

  Obtaining occupation numbers and electronic chemical potential using ELSI.
  | Note that, for insulating systems, the printed 'chemical potential' value is not uniquely defined.
  | It can be anywhere in the energy gap, as long as it correctly separates occupied and unoccupied states.
  | In systems with a gap, the physically relevant chemical potential is the VBM or HOMO.

  | Chemical potential (Fermi level):    -6.43733761 eV
  What follows are estimated values for band gap, HOMO, LUMO, etc.
  | They are estimated on a discrete k-point grid and not necessarily exact.
  | For converged numbers, create a DOS and/or band structure plot on a denser k-grid.

  Highest occupied state (VBM) at     -6.46362241 eV (relative to internal zero)
  | Occupation number:      1.42829743
  | K-point:      11 at    0.600000    0.500000    0.500000 (in units of recip. lattice)

  Lowest unoccupied state (CBM) at    -6.42090722 eV (relative to internal zero)
  | Occupation number:      0.72602815
  | K-point:       8 at    0.400000    0.000000    0.000000 (in units of recip. lattice)

  This system has fractional occupation numbers. Since we use a finite k-point grid,
  this material is metallic within the approximate finite broadening function (occupation_type)
  applied to determine the occupation numbers. We conclude: there is no gap in this system.
  ESTIMATED overall HOMO-LUMO gap:      0.00000000 eV.

  Total energy components:
  | Sum of eigenvalues            :        -232.53360713 Ha       -6327.56139287 eV
  | XC energy correction          :         -26.79728677 Ha        -729.19127395 eV
  | XC potential correction       :          34.64401868 Ha         942.71171281 eV
  | Free-atom electrostatic energy:        -175.86603464 Ha       -4785.55828907 eV
  | Hartree energy correction     :          -0.54741915 Ha         -14.89603300 eV
  | Entropy correction            :          -0.00114778 Ha          -0.03123276 eV
  | ---------------------------
  | Total energy                  :        -401.10032902 Ha      -10914.49527609 eV
  | Total energy, T -> 0          :        -401.10185940 Ha      -10914.53691977 eV  <-- do not rely on this value for anything but (periodic) metals
  | Electronic free energy        :        -401.10262459 Ha      -10914.55774161 eV

  Derived energy quantities:
  | Kinetic energy                :         404.45877166 Ha       11005.88315013 eV
  | Electrostatic energy          :        -778.76181391 Ha      -21191.18715226 eV
  | Energy correction for multipole
  | error in Hartree potential    :           0.00880822 Ha           0.23968377 eV
  | Sum of eigenvalues per atom                           :       -1581.89034822 eV
  | Total energy (T->0) per atom                          :       -2728.63422994 eV  <-- do not rely on this value for anything but (periodic) metals
  | Electronic free energy per atom                       :       -2728.63943540 eV
  Evaluating new KS density using the density matrix
  Evaluating density matrix
  Time summed over all CPUs for getting density from density matrix: real work        0.945 s, elapsed        0.966 s
  Integration grid: deviation in total charge (<rho> - N_e) =   3.197442E-14

  Self-consistency convergence accuracy:
  | Change of charge density      :  0.9611E-02
  | Change of unmixed KS density  :  0.2205E-01
  | Change of sum of eigenvalues  : -0.9358E-01 eV
  | Change of total energy        : -0.6290E-03 eV

  Electronic self-consistency reached - switching on the force computation.

  Electronic self-consistency reached - switching on the analytical stress tensor computation.


------------------------------------------------------------
  End self-consistency iteration #   271       :  max(cpu_time)    wall_clock(cpu1)
  | Time for this iteration                     :        0.238 s           0.238 s
  | Charge density & force component update     :        0.121 s           0.122 s
  | Density mixing                              :        0.002 s           0.001 s
  | Hartree multipole update                    :        0.001 s           0.001 s
  | Hartree multipole summation                 :        0.038 s           0.038 s
  | Hartree pot. SCF incomplete forces          :        0.226 s           0.227 s
  | Integration                                 :        0.075 s           0.075 s
  | Solution of K.-S. eqns.                     :        0.001 s           0.001 s
  | Total energy evaluation                     :        0.000 s           0.000 s

  Partial memory accounting:
  | Current value for overall tracked memory usage:
  |   Minimum:        2.902 MB (on task 6)
  |   Maximum:        2.946 MB (on task 3)
  |   Average:        2.922 MB
  | Peak value for overall tracked memory usage:
  |   Minimum:        9.872 MB (on task 6 after allocating d_wave)
  |   Maximum:       10.589 MB (on task 2 after allocating d_wave)
  |   Average:       10.225 MB
  | Largest tracked array allocation so far:
  |   Minimum:        1.911 MB (hessian_basis_wave on task 6)
  |   Maximum:        2.018 MB (hessian_basis_wave on task 2)
  |   Average:        1.958 MB
  Note:  These values currently only include a subset of arrays which are explicitly tracked.
  The "true" memory usage will be greater.
------------------------------------------------------------

------------------------------------------------------------
          Begin self-consistency iteration #  272

  Date     :  20260302, Time     :  015756.460
------------------------------------------------------------
  Pulay mixing of updated and previous charge densities.
  Available memory per node after mixing [GB]:     22.06
  Renormalizing the density to the exact electron count on the 3D integration grid.
  | Formal number of electrons (from input files) :      19.0000000000
  | Integrated number of electrons on 3D grid     :      19.0000000000
  | Charge integration error                      :      -0.0000000000
  | Normalization factor for density and gradient :       1.0000000000

  Evaluating partitioned Hartree potential by multipole expansion.
  | Original multipole sum: apparent total charge =  -0.319771E-13
  | Sum of charges compensated after spline to logarithmic grids =  -0.125782E-03
  | Analytical far-field extrapolation by fixed multipoles:
  | Hartree multipole sum: apparent total charge =  -0.316327E-13
  Summing up the Hartree potential.
  Time summed over all CPUs for potential: real work        0.287 s, elapsed        0.287 s
  | RMS charge density error from multipole expansion :   0.107793E-01
  | Average real-space part of the electrostatic potential :     -0.10154846 eV

  Integrating Hamiltonian matrix: batch-based integration.
  Time summed over all CPUs for integration: real work        0.571 s, elapsed        0.633 s

  Updating Kohn-Sham eigenvalues and eigenvectors using ELSI and the (modified) LAPACK eigensolver.
  Starting LAPACK eigensolver
  Finished Cholesky decomposition
  | Time :     0.000 s
  Finished transformation to standard eigenproblem
  | Time :     0.000 s
  Finished solving standard eigenproblem
  | Time :     0.001 s
  Finished back-transformation of eigenvectors
  | Time :     0.000 s

  Obtaining occupation numbers and electronic chemical potential using ELSI.
  | Note that, for insulating systems, the printed 'chemical potential' value is not uniquely defined.
  | It can be anywhere in the energy gap, as long as it correctly separates occupied and unoccupied states.
  | In systems with a gap, the physically relevant chemical potential is the VBM or HOMO.

  | Chemical potential (Fermi level):    -6.43552056 eV
  What follows are estimated values for band gap, HOMO, LUMO, etc.
  | They are estimated on a discrete k-point grid and not necessarily exact.
  | For converged numbers, create a DOS and/or band structure plot on a denser k-grid.

  Highest occupied state (VBM) at     -6.46149931 eV (relative to internal zero)
  | Occupation number:      1.42367959
  | K-point:      11 at    0.600000    0.500000    0.500000 (in units of recip. lattice)

  Lowest unoccupied state (CBM) at    -6.41920258 eV (relative to internal zero)
  | Occupation number:      0.72784750
  | K-point:       5 at    0.200000    0.000000    0.000000 (in units of recip. lattice)

  This system has fractional occupation numbers. Since we use a finite k-point grid,
  this material is metallic within the approximate finite broadening function (occupation_type)
  applied to determine the occupation numbers. We conclude: there is no gap in this system.
  ESTIMATED overall HOMO-LUMO gap:      0.00000000 eV.

  Total energy components:
  | Sum of eigenvalues            :        -232.53219243 Ha       -6327.52289675 eV
  | XC energy correction          :         -26.79730018 Ha        -729.19163878 eV
  | XC potential correction       :          34.64403731 Ha         942.71221984 eV
  | Free-atom electrostatic energy:        -175.86603464 Ha       -4785.55828907 eV
  | Hartree energy correction     :          -0.54883215 Ha         -14.93448273 eV
  | Entropy correction            :          -0.00114952 Ha          -0.03127994 eV
  | ---------------------------
  | Total energy                  :        -401.10032209 Ha      -10914.49508749 eV
  | Total energy, T -> 0          :        -401.10185478 Ha      -10914.53679407 eV  <-- do not rely on this value for anything but (periodic) metals
  | Electronic free energy        :        -401.10262112 Ha      -10914.55764736 eV

  Derived energy quantities:
  | Kinetic energy                :         404.45878291 Ha       11005.88345607 eV
  | Electrostatic energy          :        -778.76180482 Ha      -21191.18690477 eV
  | Energy correction for multipole
  | error in Hartree potential    :           0.00879659 Ha           0.23936732 eV
  | Sum of eigenvalues per atom                           :       -1581.88072419 eV
  | Total energy (T->0) per atom                          :       -2728.63419852 eV  <-- do not rely on this value for anything but (periodic) metals
  | Electronic free energy per atom                       :       -2728.63941184 eV
  Evaluating new KS density using the density matrix
  Evaluating density matrix
  Time summed over all CPUs for getting density from density matrix: real work        0.936 s, elapsed        0.981 s
  Integration grid: deviation in total charge (<rho> - N_e) =  -7.460699E-14

  atomic forces [eV/Ang]:
  -----------------------
  atom #    1
   Hellmann-Feynman              : -0.150306E-10 -0.152324E-08 -0.870727E-11
   Ionic forces                  :  0.000000E+00  0.000000E+00  0.000000E+00
   Multipole                     : -0.870912E-11  0.235923E-11 -0.295833E-11
   Hartree pot. SCF incomplete   :  0.713320E-10  0.114883E-08 -0.237834E-10
   Pulay + GGA                   :  0.000000E+00  0.000000E+00  0.000000E+00
   ----------------------------------------------------------------
   Total forces(   1)            :  0.475922E-10 -0.372050E-09 -0.354490E-10
  atom #    2
   Hellmann-Feynman              : -0.114393E-01  0.287967E-01 -0.114718E+00
   Ionic forces                  :  0.000000E+00  0.000000E+00  0.000000E+00
   Multipole                     :  0.772895E-03 -0.546736E-02  0.154870E-01
   Hartree pot. SCF incomplete   : -0.115296E-02 -0.573183E-02 -0.671373E-02
   Pulay + GGA                   :  0.000000E+00  0.000000E+00  0.000000E+00
   ----------------------------------------------------------------
   Total forces(   2)            : -0.118193E-01  0.175975E-01 -0.105945E+00
  atom #    3
   Hellmann-Feynman              :  0.114393E-01 -0.287967E-01  0.114718E+00
   Ionic forces                  :  0.000000E+00  0.000000E+00  0.000000E+00
   Multipole                     : -0.772895E-03  0.546736E-02 -0.154870E-01
   Hartree pot. SCF incomplete   :  0.115296E-02  0.573183E-02  0.671373E-02
   Pulay + GGA                   :  0.000000E+00  0.000000E+00  0.000000E+00
   ----------------------------------------------------------------
   Total forces(   3)            :  0.118193E-01 -0.175975E-01  0.105945E+00
  atom #    4
   Hellmann-Feynman              : -0.579158E-09  0.686670E-07 -0.353330E-08
   Ionic forces                  :  0.000000E+00  0.000000E+00  0.000000E+00
   Multipole                     :  0.141394E-09 -0.289793E-09  0.172659E-09
   Hartree pot. SCF incomplete   : -0.290430E-09 -0.987712E-08  0.105796E-08
   Pulay + GGA                   :  0.000000E+00  0.000000E+00  0.000000E+00
   ----------------------------------------------------------------
   Total forces(   4)            : -0.728194E-09  0.585001E-07 -0.230268E-08


  Self-consistency convergence accuracy:
  | Change of charge density      :  0.1261E-01
  | Change of unmixed KS density  :  0.3074E-02
  | Change of sum of eigenvalues  :  0.3850E-01 eV
  | Change of total energy        :  0.1886E-03 eV
  | Change of forces              :  0.7247E-01 eV/A


------------------------------------------------------------
  End self-consistency iteration #   272       :  max(cpu_time)    wall_clock(cpu1)
  | Time for this iteration                     :        0.740 s           0.740 s
  | Charge density & force component update     :        0.123 s           0.124 s
  | Density mixing                              :        0.001 s           0.001 s
  | Hartree multipole update                    :        0.001 s           0.001 s
  | Hartree multipole summation                 :        0.290 s           0.290 s
  | Hartree pot. SCF incomplete forces          :        0.243 s           0.243 s
  | Integration                                 :        0.080 s           0.080 s
  | Solution of K.-S. eqns.                     :        0.001 s           0.001 s
  | Total energy evaluation                     :        0.000 s           0.000 s

  Partial memory accounting:
  | Current value for overall tracked memory usage:
  |   Minimum:        2.902 MB (on task 6)
  |   Maximum:        2.946 MB (on task 3)
  |   Average:        2.922 MB
  | Peak value for overall tracked memory usage:
  |   Minimum:        9.872 MB (on task 6 after allocating d_wave)
  |   Maximum:       10.589 MB (on task 2 after allocating d_wave)
  |   Average:       10.225 MB
  | Largest tracked array allocation so far:
  |   Minimum:        1.911 MB (hessian_basis_wave on task 6)
  |   Maximum:        2.018 MB (hessian_basis_wave on task 2)
  |   Average:        1.958 MB
  Note:  These values currently only include a subset of arrays which are explicitly tracked.
  The "true" memory usage will be greater.
------------------------------------------------------------

------------------------------------------------------------
          Begin self-consistency iteration #  273

  Date     :  20260302, Time     :  015757.201
------------------------------------------------------------
  Pulay mixing of updated and previous charge densities.
  Available memory per node after mixing [GB]:     22.06
  Renormalizing the density to the exact electron count on the 3D integration grid.
  | Formal number of electrons (from input files) :      19.0000000000
  | Integrated number of electrons on 3D grid     :      19.0000000000
  | Charge integration error                      :       0.0000000000
  | Normalization factor for density and gradient :       1.0000000000

  Evaluating partitioned Hartree potential by multipole expansion.
  | Original multipole sum: apparent total charge =  -0.388644E-14
  | Sum of charges compensated after spline to logarithmic grids =  -0.125153E-03
  | Analytical far-field extrapolation by fixed multipoles:
  | Hartree multipole sum: apparent total charge =  -0.415702E-14
  Summing up the Hartree potential.
  Time summed over all CPUs for potential: real work        0.282 s, elapsed        0.282 s
  | RMS charge density error from multipole expansion :   0.107368E-01
  | Average real-space part of the electrostatic potential :     -0.10186189 eV

  Integrating Hamiltonian matrix: batch-based integration.
  Time summed over all CPUs for integration: real work        0.551 s, elapsed        0.567 s

  Updating Kohn-Sham eigenvalues and eigenvectors using ELSI and the (modified) LAPACK eigensolver.
  Starting LAPACK eigensolver
  Finished Cholesky decomposition
  | Time :     0.000 s
  Finished transformation to standard eigenproblem
  | Time :     0.000 s
  Finished solving standard eigenproblem
  | Time :     0.000 s
  Finished back-transformation of eigenvectors
  | Time :     0.000 s

  Obtaining occupation numbers and electronic chemical potential using ELSI.
  | Note that, for insulating systems, the printed 'chemical potential' value is not uniquely defined.
  | It can be anywhere in the energy gap, as long as it correctly separates occupied and unoccupied states.
  | In systems with a gap, the physically relevant chemical potential is the VBM or HOMO.

  | Chemical potential (Fermi level):    -6.40684154 eV
  What follows are estimated values for band gap, HOMO, LUMO, etc.
  | They are estimated on a discrete k-point grid and not necessarily exact.
  | For converged numbers, create a DOS and/or band structure plot on a denser k-grid.

  Highest occupied state (VBM) at     -6.41700110 eV (relative to internal zero)
  | Occupation number:      1.17097578
  | K-point:      11 at    0.600000    0.500000    0.500000 (in units of recip. lattice)

  Lowest unoccupied state (CBM) at    -6.39950102 eV (relative to internal zero)
  | Occupation number:      0.87612778
  | K-point:       6 at    0.200000    0.000000    0.500000 (in units of recip. lattice)

  This system has fractional occupation numbers. Since we use a finite k-point grid,
  this material is metallic within the approximate finite broadening function (occupation_type)
  applied to determine the occupation numbers. We conclude: there is no gap in this system.
  ESTIMATED overall HOMO-LUMO gap:      0.00000000 eV.

  Total energy components:
  | Sum of eigenvalues            :        -232.50315442 Ha       -6326.73273245 eV
  | XC energy correction          :         -26.79746911 Ha        -729.19623569 eV
  | XC potential correction       :          34.64429357 Ha         942.71919311 eV
  | Free-atom electrostatic energy:        -175.86603464 Ha       -4785.55828907 eV
  | Hartree energy correction     :          -0.57808094 Ha         -15.73038276 eV
  | Entropy correction            :          -0.00107086 Ha          -0.02913967 eV
  | ---------------------------
  | Total energy                  :        -401.10044555 Ha      -10914.49844687 eV
  | Total energy, T -> 0          :        -401.10187336 Ha      -10914.53729975 eV  <-- do not rely on this value for anything but (periodic) metals
  | Electronic free energy        :        -401.10258727 Ha      -10914.55672620 eV

  Derived energy quantities:
  | Kinetic energy                :         404.45885863 Ha       11005.88551662 eV
  | Electrostatic energy          :        -778.76183506 Ha      -21191.18772779 eV
  | Energy correction for multipole
  | error in Hartree potential    :           0.00869291 Ha           0.23654605 eV
  | Sum of eigenvalues per atom                           :       -1581.68318311 eV
  | Total energy (T->0) per atom                          :       -2728.63432494 eV  <-- do not rely on this value for anything but (periodic) metals
  | Electronic free energy per atom                       :       -2728.63918155 eV
  Evaluating new KS density using the density matrix
  Evaluating density matrix
  Time summed over all CPUs for getting density from density matrix: real work        0.908 s, elapsed        0.921 s
  
  Evaluating density-matrix-based force terms: batch-based integration
  Evaluating density matrix
  Evaluating density matrix
