------------------------------------------------------------
          Invoking FHI-aims ...

          When using FHI-aims, please cite the following reference:

            Volker Blum, Ralf Gehrke, Felix Hanke, Paula Havu,
            Ville Havu, Xinguo Ren, Karsten Reuter, and Matthias Scheffler,
            'Ab Initio Molecular Simulations with Numeric Atom-Centered Orbitals',
            Computer Physics Communications 180, 2175-2196 (2009)

          In addition, many other developments in FHI-aims are likely important for
          your particular application. If so, please cite them. A partial list of references
          is written at the end of this file. Thank you for giving credit to the authors
          of these developments.

          For general information about FHI-aims please find us at

            https://fhi-aims.org

          Online tutorials can be found at

            https://fhi-aims-club.gitlab.io/tutorials/tutorials-overview/

          For any questions about FHI-aims, please visit our slack channel at

            https://fhi-aims.slack.com

          and our main development and support site at

            https://aims-git.rz-berlin.mpg.de .

          The latter site, in particular, has a wiki to collect information, as well
          as an issue tracker to log discussions, suggest improvements, and report issues
          or bugs. https://aims-git.rz-berlin.mpg.de is also the main development site
          of the project and all new and updated code versions can be obtained there.
          Please send an email to aims-coordinators@fhi-berlin.mpg.de and we will add
          you to these sites. They are for you and everyone is welcome there.

------------------------------------------------------------



  Date     :  20260302, Time     :  113640.745
  Time zero on CPU 1             :   0.212780000000000E-01  s.
  Internal wall clock time zero  :           541683400.745  s.

  FHI-aims created a unique identifier for this run for later identification
  aims_uuid : C88FC4AB-B9C5-4D3C-A0D8-E83B989602B4

  Build configuration of the current instance of FHI-aims
  -------------------------------------------------------
  FHI-aims version      : 250822
  Commit number         : GITDIR-NOTFOUND
  CMake host system     : Linux-6.17.0-14-generic
  CMake version         : 3.28.3
  OS Distribution       : Ubuntu 24.04.4 LTS
  Built on              : Intel(R) Core(TM) i9-10900KF CPU @ 3.70GHz
  Fortran compiler      : /usr/bin/mpif90 (GNU) version 13.3.0
  Fortran compiler flags: -O3 -march=native -mtune=native -fallow-argument-mismatch
  C compiler            : /usr/bin/mpicc (GNU) version 13.3.0
  C compiler flags      : -O3 -march=native -mtune=native -std=gnu11
  C++ compiler          : /usr/bin/mpicxx (GNU) version 13.3.0
  C++ compiler flags    : -O3 -march=native -mtune=native
  HIP compiler          :
  HIP compiler flags    :
  HIP GPU arch          :
  Using MPI
  Using ScaLAPACK
  Using LibXC
  Using i-PI
  Using RLSY
  Linking against: /opt/intel/oneapi/mkl/2025.0/lib/libmkl_scalapack_lp64.so
                   /opt/intel/oneapi/mkl/2025.0/lib/libmkl_blacs_openmpi_lp64.so
                   /opt/intel/oneapi/mkl/2025.0/lib/libmkl_intel_lp64.so
                   /opt/intel/oneapi/mkl/2025.0/lib/libmkl_sequential.so
                   /opt/intel/oneapi/mkl/2025.0/lib/libmkl_core.so
                   /usr/lib/x86_64-linux-gnu/libpthread.a
                   /usr/lib/x86_64-linux-gnu/libdl.a
                   /usr/lib/x86_64-linux-gnu/libm.so

  Using        4 parallel tasks.
  Task        0 on host cucciari-lab reporting.
  Task        1 on host cucciari-lab reporting.
  Task        2 on host cucciari-lab reporting.
  Task        3 on host cucciari-lab reporting.

  Obtaining array dimensions for all initial allocations:
  
  -----------------------------------------------------------------------
  Parsing control.in (first pass over file, find array dimensions only).
  The contents of control.in will be repeated verbatim below
  unless switched off by setting 'verbatim_writeout .false.' .
  in the first line of control.in .
  -----------------------------------------------------------------------
  
  #########################################################################################
  #
  #  Volker Blum, FHI 2008 : Test run input file control.in for simple H2O
  #
  #########################################################################################
  #
  #  Physical model
  #
    xc                 pbe
    spin               none
    relativistic      atomic_zora scalar
    charge             0.
  #
  #  SCF convergence
  #
    occupation_type    methfessel-paxton  0.1 1
    mixer              pulay
        n_max_pulay        10
        charge_mix_param   0.02
    sc_accuracy_rho    1E-2
    sc_accuracy_eev    1E-1
    sc_accuracy_etot   1E-2
    KS_method          parallel
    basis_threshold    1.e-5
    override_illconditioning .true.
  #
  #  Relaxation
  #
     relax_geometry   bfgs 3.0
  #   max_atomic_move 0.1
     external_pressure 150
     pressure_unit GPa
     relax_unit_cell full
     max_relaxation_steps 10
  #  output mulliken
  #
  ################################################################################
  #
  #  FHI-aims code project
  #  VB, Fritz-Haber Institut, 2009
  #
  #  Suggested "light" defaults for S atom (to be pasted into control.in file)
  #  Be sure to double-check any results obtained with these settings for post-processing,
  #  e.g., with the "tight" defaults and larger basis sets.
  #
  #  2020/09/08 Added f function to "light" after reinspection of Delta test outcomes.
  #             This was done for all of Al-Cl and is a tricky decision since it makes
  #             "light" calculations measurably more expensive for these elements.
  #             Nevertheless, outcomes for P, S, Cl (and to some extent, Si) appear
  #             to justify this choice.
  #
  ################################################################################
    species        S
  #     global species definitions
      nucleus             16
      mass                32.065
  #
      l_hartree           4
  #
      cut_pot             3.5          1.5  1.0
      basis_dep_cutoff    1e-4
  #
      radial_base         44 5.0
      radial_multiplier   1
      angular_grids       specified
        division   0.4665  110
        division   0.5810  194
        division   0.7139  302
  #      division   0.8274  434
  #      division   0.9105  590
  #      division   1.0975  770
  #      division   1.2028  974
  #      outer_grid  974
        outer_grid  302
  ################################################################################
  #
  #  Definition of "minimal" basis
  #
  ################################################################################
  #     valence basis states
      valence      3  s   2.
      valence      3  p   4.
  #     ion occupancy
      ion_occ      3  s   1.
      ion_occ      3  p   3.
  ################################################################################
  #
  #  Suggested additional basis functions. For production calculations,
  #  uncomment them one after another (the most important basis functions are
  #  listed first).
  #
  #  Constructed for dimers: 1.6 A, 1.9 A, 2.5 A, 3.25 A, 4.0 A
  #
  ################################################################################
  #  "First tier" - improvements: -652.81 meV to -45.53 meV
       ionic 3 d auto
       hydro 2 p 1.8
       hydro 4 f 7
       ionic 3 s auto
  #  "Second tier" - improvements: -30.20 meV to -1.74 meV
  #     hydro 4 d 6.2
  #     hydro 5 g 10.8
  #     hydro 4 p 4.9
  #     hydro 5 f 10
  #     hydro 1 s 0.8
  #  "Third tier" - improvements: -1.04 meV to -0.20 meV
  #     hydro 3 d 3.9
  #     hydro 3 d 2.7
  #     hydro 5 g 12
  #     hydro 4 p 10.4
  #     hydro 5 f 12.4
  #     hydro 2 s 1.9
  #  "Fourth tier" - improvements: -0.35 meV to -0.06 meV
  #     hydro 4 d 10.4
  #     hydro 4 p 7.2
  #     hydro 4 d 10
  #     hydro 5 g 19.2
  #     hydro 4 s 12
  
  ################################################################################
  #
  #  FHI-aims code project
  #  VB, Fritz-Haber Institut, 2009
  #
  #  Suggested "light" defaults for H atom (to be pasted into control.in file)
  #  Be sure to double-check any results obtained with these settings for post-processing,
  #  e.g., with the "tight" defaults and larger basis sets.
  #
  ################################################################################
    species        H
  #     global species definitions
      nucleus             1
      mass                1.00794
  #
      l_hartree           4
  #
      cut_pot             3.5  1.5  1.0
      basis_dep_cutoff    1e-4
  #
      radial_base         24 5.0
      radial_multiplier   1
      angular_grids       specified
        division   0.2421   50
        division   0.3822  110
        division   0.4799  194
        division   0.5341  302
  #      division   0.5626  434
  #      division   0.5922  590
  #      division   0.6542  770
  #      division   0.6868 1202
  #      outer_grid  770
        outer_grid  302
  ################################################################################
  #
  #  Definition of "minimal" basis
  #
  ################################################################################
  #     valence basis states
      valence      1  s   1.
  #     ion occupancy
      ion_occ      1  s   0.5
  ################################################################################
  #
  #  Suggested additional basis functions. For production calculations,
  #  uncomment them one after another (the most important basis functions are
  #  listed first).
  #
  #  Basis constructed for dimers: 0.5 A, 0.7 A, 1.0 A, 1.5 A, 2.5 A
  #
  ################################################################################
  #  "First tier" - improvements: -1014.90 meV to -62.69 meV
       hydro 2 s 2.1
       hydro 2 p 3.5
  #  "Second tier" - improvements: -12.89 meV to -1.83 meV
  #     hydro 1 s 0.85
  #     hydro 2 p 3.7
  #     hydro 2 s 1.2
  #     hydro 3 d 7
  #  "Third tier" - improvements: -0.25 meV to -0.12 meV
  #     hydro 4 f 11.2
  #     hydro 3 p 4.8
  #     hydro 4 d 9
  #     hydro 3 s 3.2
  k_grid 7 3 2
  
  -----------------------------------------------------------------------
  Completed first pass over input file control.in .
  -----------------------------------------------------------------------
  
  
  -----------------------------------------------------------------------
  Parsing geometry.in (first pass over file, find array dimensions only).
  The contents of geometry.in will be repeated verbatim below
  unless switched off by setting 'verbatim_writeout .false.' .
  in the first line of geometry.in .
  -----------------------------------------------------------------------
  
  #===============================================================================
  # Created using the Atomic Simulation Environment (ASE)
  
  # Mon Mar  2 11:36:40 2026
  
  #=======================================================
  lattice_vector 1.2710893000000001 0.0000000000000000 0.0000000000000000
  lattice_vector 0.1156700500000000 4.1049515999999997 0.0000000000000000
  lattice_vector 0.3394370200000000 1.2021442800000000 6.7721659100000000
  atom 0.6355446500000000 0.0000000000000000 0.0000000000000000 H
  atom 1.1218895640184916 4.2012610881070422 3.5784538447777106 H
  atom 0.6043068059815083 1.1058347918929572 3.1937120652222899 H
  atom 0.8630981850000001 2.6535479399999997 3.3860829550000000 S
  
  -----------------------------------------------------------------------
  Completed first pass over input file geometry.in .
  -----------------------------------------------------------------------
  

  Basic array size parameters:
  | Number of species                 :        2
  | Number of atoms                   :        4
  | Number of lattice vectors         :        3
  | Max. basis fn. angular momentum   :        3
  | Max. atomic/ionic basis occupied n:        3
  | Max. number of basis fn. types    :        3
  | Max. radial fns per species/type  :        5
  | Max. logarithmic grid size        :     1357
  | Max. radial integration grid size :       44
  | Max. angular integration grid size:      302
  | Max. angular grid division number :        8
  | Radial grid for Hartree potential :     1357
  | Number of spin channels           :        1

  Definition of standardized fundamental physical constants in this FHI-aims run:
  | Using the set of values used in FHI-aims up to 2024, which combines values from
  | different CODATA sets - see constants.f90.
  | Use the 'codata' keyword in control.in to change this selection.

  Memory overcommitment is allowed on your operating system.

------------------------------------------------------------
          Reading file control.in.
------------------------------------------------------------
  XC: Using PBE gradient-corrected functionals.
  Spin treatment: No spin polarisation.
  Scalar relativistic treatment of kinetic energy: on-site free-atom approximation to ZORA.
  Charge =   0.000000E+00: Neutral system requested explicitly.
  Occupation type: Methfessel-Paxton broadening, width =   0.100000E+00 eV, N =    1
  Using pulay charge density mixing.
  Pulay mixing - number of memorized iterations:   10
  Charge density mixing - mixing parameter:     0.0200
  Convergence accuracy of self-consistent charge density:  0.1000E-01
  Convergence accuracy of sum of eigenvalues:  0.1000E+00
  Convergence accuracy of total energy:  0.1000E-01
  Kohn-Sham electronic structure solved by the ELSI library.
  Threshold for basis singularities:  0.1000E-04
  override_illconditioning: Explicitly overriding any built-in checks for an ill-conditioned overlap matrix.
** WARNING:
  ***  If you use this flag, you should really know what you are doing.
** END OF WARNING
** WARNING:
  *** DO NOT keep this flag set by default in all your control.in files.
** END OF WARNING
  Geometry relaxation: Modified BFGS - TRM (trust radius method) for lattice optimization.
  Convergence accuracy for geometry relaxation: Maximum force <   0.300000E+01 eV/A.
  pressure_unit: Unit for the external pressure set to GPa.
  Maximum steps for geometry relaxation:       10

  Reading configuration options for species S                   .
  | Found nuclear charge :  16.0000
  | Found atomic mass :    32.064999999999998      amu
  | Found l_max for Hartree potential  :   4
  | Found cutoff potl. onset [A], width [A], scale factor :    3.50000    1.50000    1.00000
  | Threshold for basis-dependent cutoff potential is   0.100000E-03
  | Found data for basic radial integration grid :    44 points, outermost radius =    5.000 A
  | Found multiplier for basic radial grid :   1
  | Found angular grid specification: user-specified.
  | Specified grid contains     4 separate shells.
  | Check grid settings after all constraints further below.
  | Found free-atom valence shell :  3 s   2.000
  | Found free-atom valence shell :  3 p   4.000
  | Found free-ion valence shell :  3 s   1.000
  | Found free-ion valence shell :  3 p   3.000
  | Found ionic basis function :  3 d , default cutoff radius.
  | Found hydrogenic basis function :  2 p   1.800
  | Found hydrogenic basis function :  4 f   7.000
  | Found ionic basis function :  3 s , default cutoff radius.
 | Encountered keyword species, ending the description of species S                   .
  Species S                   : Missing cutoff potential type.
  Defaulting to exp(1/x)/(1-x)^2 type cutoff potential.
  Species S : No 'logarithmic' tag. Using default grid for free atom:
  | Default logarithmic grid data [bohr] : 0.1000E-03 0.1000E+03 0.1012E+01
  | Will include ionic basis functions of  2.0-fold positive S                    ion.
  Species S : On-site basis accuracy parameter (for Gram-Schmidt orthonormalisation) not specified.
  Using default value basis_acc =  0.1000000E-03.
  Species S                   : Using default innermost maximum threshold i_radial=  2 for radial functions.
  Species S                   : Default cutoff onset for free atom density etc. : 0.35000000E+01 AA.
  Species S                   : Basic radial grid will be enhanced according to radial_multiplier =   1, to contain    44 grid points.

  Reading configuration options for species H                   .
  | Found nuclear charge :   1.0000
  | Found atomic mass :    1.0079400000000001      amu
  | Found l_max for Hartree potential  :   4
  | Found cutoff potl. onset [A], width [A], scale factor :    3.50000    1.50000    1.00000
  | Threshold for basis-dependent cutoff potential is   0.100000E-03
  | Found data for basic radial integration grid :    24 points, outermost radius =    5.000 A
  | Found multiplier for basic radial grid :   1
  | Found angular grid specification: user-specified.
  | Specified grid contains     5 separate shells.
  | Check grid settings after all constraints further below.
  | Found free-atom valence shell :  1 s   1.000
  | Found free-ion valence shell :  1 s   0.500
  | Found hydrogenic basis function :  2 s   2.100
  | Found hydrogenic basis function :  2 p   3.500
 | Encountered keyword k_grid, ending the description of species H                   .
  Species H                   : Missing cutoff potential type.
  Defaulting to exp(1/x)/(1-x)^2 type cutoff potential.
  Species H : No 'logarithmic' tag. Using default grid for free atom:
  | Default logarithmic grid data [bohr] : 0.1000E-03 0.1000E+03 0.1012E+01
  Species H : On-site basis accuracy parameter (for Gram-Schmidt orthonormalisation) not specified.
  Using default value basis_acc =  0.1000000E-03.
  Species H                   : Using default innermost maximum threshold i_radial=  2 for radial functions.
  Species H                   : Default cutoff onset for free atom density etc. : 0.35000000E+01 AA.
  Species H                   : Basic radial grid will be enhanced according to radial_multiplier =   1, to contain    24 grid points.
  Found k-point grid:         7         3         2

  Finished reading input file 'control.in'.

------------------------------------------------------------


------------------------------------------------------------
          Reading geometry description geometry.in.
------------------------------------------------------------
  | The smallest distance between any two atoms is         1.15269311 AA.
  | The first atom of this pair is atom number                      2 .
  | The second atom of this pair is atom number                     3 .
  | Wigner-Seitz cell of the first atom image           1     0     1 .
  | (The Wigner-Seitz cell of the second atom is 0 0 0  by definition.)

  Symmetry information by spglib:
  | Precision set to  0.1E-04
  | Number of Operations  : 2
  | Space group           : 2
  | International         : P-1
  | Schoenflies           : Ci^1
  Input structure read successfully.
  The structure contains        4 atoms,  and a total of         19.000 electrons.

  Input geometry:
  | Unit cell:
  |        1.27108930        0.00000000        0.00000000
  |        0.11567005        4.10495160        0.00000000
  |        0.33943702        1.20214428        6.77216591
  | Atomic structure:
  |       Atom                x [A]            y [A]            z [A]
  |    1: Species H             0.63554465        0.00000000        0.00000000
  |    2: Species H             1.12188956        4.20126109        3.57845384
  |    3: Species H             0.60430681        1.10583479        3.19371207
  |    4: Species S             0.86309819        2.65354794        3.38608296

  Lattice parameters for 3D lattice (in Angstroms) :     1.271089    4.106581    6.886407
  Angle(s) between unit vectors (in degrees)       :    79.869730   87.174696   88.385937


  Quantities derived from the lattice vectors (in Angstrom^-1):
  | Reciprocal lattice vector 1:  4.943150 -0.139289 -0.223037
  | Reciprocal lattice vector 2: -0.000000  1.530636 -0.271707
  | Reciprocal lattice vector 3: -0.000000 -0.000000  0.927796
  | Unit cell volume                               :   0.353355E+02  Angstrom^3

  Fractional coordinates:
                         L1                L2                L3
       atom_frac         0.50000000       -0.00000000       -0.00000000  H
       atom_frac         0.66245892        0.86871687        0.52840611  H
       atom_frac         0.33754108        0.13128313        0.47159389  H
       atom_frac         0.50000000        0.50000000        0.50000000  S

  Slab Identifier: This seems to be a bulk system.

  Finished reading input file 'geometry.in'.



  Consistency checks for stacksize environment parameter are next.

  | Maximum stacksize for task 0: unlimited
  | Maximum stacksize for task 1: unlimited
  | Maximum stacksize for task 2: unlimited
  | Maximum stacksize for task 3: unlimited
  | Current stacksize for task 0: unlimited
  | Current stacksize for task 1: unlimited
  | Current stacksize for task 2: unlimited
  | Current stacksize for task 3: unlimited

  Consistency checks for the contents of control.in are next.

  MPI_IN_PLACE appears to work with this MPI implementation.
  | Keeping use_mpi_in_place .true. (see manual).
  Target number of points in a grid batch is not set. Defaulting to  100
  Method for grid partitioning is not set. Defaulting to parallel hash+maxmin partitioning.
  Batch size limit is not set. Defaulting to    200
  By default, will store active basis functions for each batch.
  If in need of memory, prune_basis_once .false. can be used to disable this option.
  communication_type for Hartree potential was not specified.
  Defaulting to calc_hartree .
  Pulay mixer: Number of initial linear mixing iterations not set.
  Defaulting to    0 iterations.
  Work space size for distributed Hartree potential not set.
  Defaulting to   0.200000E+03 MB.
  Algorithm-dependent basis array size parameters:
  | n_max_pulay                         :       10
  Maximum number of self-consistency iterations not provided.
  Presetting  1000 iterations.
  Presetting      1001 iterations before the initial mixing cycle
  is restarted anyway using the sc_init_iter criterion / keyword.
  Presetting a factor      1.000 between actual scf density residual
  and density convergence criterion sc_accuracy_rho below which sc_init_iter
  takes no effect.
  Default initial Hessian is Lindh matrix (thres = 15.00) plus  0.200000E+01 eV/A^2 times unity.
  No maximum energy tolerance for TRM/BFGS moves, defaulting to   0.150000E-02
  Maximum energy tolerance by which TRM/BFGS trajectory may increase over multiple steps:   0.300000E-02
  No harmonic length scale. Defaulting to   0.250000E-01 A.
  No trust radius initializer. Defaulting to   0.200000E+00 A.
  External pressure of  0.936E+00 eV/A**3 ( 0.150E+03 GPa) is applied to system.
  Unit cell relaxation: Unit cell will be relaxed fully.
  Unit cell relaxation: Analytical stress will be used.
  Analytical stress will be computed.
  Analytical stress calculation: Only the upper triangle is calculated.
                                 Final output is symmetrized.
  Analytical stress calculation: scf convergence accuracy of stress not set.
                                 Analytical stress self-consistency will not be checked explicitly.
                                 Be sure to set other criteria like sc_accuracy_rho tight enough.
  Forces evaluation will include force correction term due to incomplete self-consistency (default).
  Force calculation: scf convergence accuracy of forces not set.
  Defaulting to 'sc_accuracy_forces not_checked'.
  Handling of forces: Unphysical translation and rotation will be removed from forces.
  No accuracy limit for integral partition fn. given. Defaulting to  0.1000E-14.
  No threshold value for u(r) in integrations given. Defaulting to  0.1000E-05.
  No accuracy for occupation numbers given. Defaulting to  0.1000E-12.
  No threshold value for occupation numbers given. Defaulting to  0.0000E+00.
  No accuracy for fermi level given. Defaulting to  0.1000E-19.
  Maximum # of iterations to find E_F not set. Defaulting to  200.
 * You have    42 k-points in your system, but only     4 MPI-tasks available.
 * In this case using ScaLAPACK is not necessary / supported.
 * Switching to LAPACK (via ELSI) instead.
  Will not use alltoall communication since running on < 1024 CPUs.
  partition_type (choice of integration weights) for integrals was not specified.
  | Using a version of the partition function of Stratmann and coworkers ('stratmann_sparse').
  | At each grid point, the set of atoms used to build the partition table is smoothly restricted to
  | only those atoms whose free-atom density would be non-zero at that grid point.
  Partitioning for Hartree potential was not defined. Using partition_type for integrals.
  | Adjusted default value of keyword multip_moments_threshold to:       0.10000000E-11
  | This value may affect high angular momentum components of the Hartree potential in periodic systems.
  Using 2025 definition of centers list for evaluation of the Stratmann partition function.
  No q(lm)/r^(l+1) cutoff set for long-range Hartree potential.
  | Using default value of  0.100000E-09 .
  | Verify using the multipole_threshold keyword.
  Defaulting to new monopole extrapolation.
  Density update method: automatic selection selected.
  Using density matrix based charge density update.
  Using density matrix based charge density update.
  Using packed matrix style: index .
  Threshold of packed matrixes:  0.000000E+00
  Geometry relaxation: A file "geometry.in.next_step" is written out by default after each step.
  | This file contains the geometry of the current relaxation step as well as
  | the current Hessian matrix needed to restart the relaxation algorithm.
  | If you do not want part or all of this information, use the keywords
  | "write_restart_geometry" or "hessian_to_restart_geometry" to switch the output off.
  Defaulting to use time-reversal symmetry for k-point grid.
  Charge integration errors on the 3D integration grid will be compensated
  by explicit normalization and distribution of residual charges.
  Use the "compensate_multipole_errors" flag to change this behaviour.
  Set 'collect_eigenvectors' to be '.true.' for all serial calculations. This is mandatory.
  Set 'collect_eigenvectors' to be '.true.' for KS_method lapack_fast and serial.
  Found potential conflicts with setting 'use_local_index' for this calculation. Will not set it.

  Consistency checks for the contents of geometry.in are next.


  Range separation radius for Ewald summation (hartree_convergence_parameter):      2.82665738 bohr.
  Number of empty states per atom not set in control.in - providing a guess from actual geometry.
  | Total number of empty states used during s.c.f. cycle:        8
  If you use a very high smearing, use empty_states (per atom!) in control.in to increase this value.

  Structure-dependent array size parameters: 
  | Maximum number of distinct radial functions  :       12
  | Maximum number of basis functions            :       40
  | Number of Kohn-Sham states (occupied + empty):       18
------------------------------------------------------------

  Checking k-grid inconsistencies now:
  | k-point density for reciprocal lattice vector 1 is    1.41 nkpts / Angstrom^-1
  | k-point density for reciprocal lattice vector 2 is    1.93 nkpts / Angstrom^-1
  | k-point density for reciprocal lattice vector 3 is    2.16 nkpts / Angstrom^-1

  | Ratio of k-point densities for reciprocal lattice vectors 1 vs 2 is    0.73
  | Ratio of k-point densities for reciprocal lattice vectors 1 vs 3 is    0.66
  | Ratio of k-point densities for reciprocal lattice vectors 2 vs 3 is    0.90

  * The specified k_grid leads to a nearly homogenous k-grid density in non-vacuum directions,
  * and seems sensible.

  | Checks passed.
  After read_input_data [GB]:     22.62

  Performing system and environment tests:
  | Environment variable OMP_NUM_THREADS correctly set to 1.
  | Checking for ScaLAPACK...
  | Testing pdtran()...
  | All pdtran() tests passed.
  | Testing CPU compatibility for run-time vs. build-time.
  | Reading /proc/cpuinfo for CPU information ...
  | Built for  : Intel(R) Core(TM) i9-10900KF CPU @ 3.70GHz
  | Running on : Intel(R) Core(TM) i9-10900KF CPU @ 3.70GHz
  | Runtime CPU compatibility verified.
  
  After prepare_system [GB]:     22.61

------------------------------------------------------------
          Preparing all fixed parts of the calculation.
------------------------------------------------------------
  Determining machine precision:
     2.2250738585072014E-308
  Setting up grids for atomic and cluster calculations.

  Creating wave function, potential, and density for free atoms.
  Runtime choices for atomic solver:
  | atomic solver xc        : PBE
  | compute density gradient: 1
  | compute kinetic density : F

  Species: S

  List of occupied orbitals and eigenvalues:
    n    l              occ      energy [Ha]    energy [eV]
    1    0           2.0000       -88.678258     -2413.0582
    2    0           2.0000        -7.779365      -211.6873
    3    0           2.0000        -0.631865       -17.1939
    2    1           6.0000        -5.749610      -156.4549
    3    1           4.0000        -0.255301        -6.9471


  Species: H

  List of occupied orbitals and eigenvalues:
    n    l              occ      energy [Ha]    energy [eV]
    1    0           1.0000        -0.237593        -6.4652


  Adding cutoff potential to free-atom effective potential.
  Creating fixed part of basis set: Ionic, confined, hydrogenic.

  S                    ion:

  List of free ionic orbitals and eigenvalues:
    n    l      energy [Ha]    energy [eV]
    1    0       -89.703778     -2440.9640
    2    0        -8.775428      -238.7916
    3    0        -1.470343       -40.0101
    2    1        -6.747660      -183.6132
    3    1        -1.048627       -28.5346


  List of ionic basis orbitals and eigenvalues:
    n    l      energy [Ha]    energy [eV]    outer radius [A]
    3    2        -0.495221       -13.4756       4.539062
    3    0        -1.470325       -40.0096       3.642502


  S                    hydrogenic:

  List of hydrogenic basis orbitals: 
    n    l      effective z      eigenvalue [eV]  inner max. [A]     outer max. [A]     outer radius [A]   
    2    1         1.800000       -10.9749           1.168531           1.168531           4.594893
    4    3         7.000000       -41.6658           1.212182           1.212182           4.539062


  H                    hydrogenic:

  List of hydrogenic basis orbitals: 
    n    l      effective z      eigenvalue [eV]  inner max. [A]     outer max. [A]     outer radius [A]   
    2    0         2.100000       -14.9728           0.193243           1.317208           4.583499
    2    1         3.500000       -41.6669           0.602369           0.602369           3.723403

  Creating atomic-like basis functions for current effective potential.

  Species S                   :

  List of atomic basis orbitals and eigenvalues:
    n    l      energy [Ha]    energy [eV]    outer radius [A]
    1    0       -88.678258     -2413.0582       0.682391
    2    0        -7.779365      -211.6873       2.289014
    3    0        -0.631865       -17.1939       4.483910
    2    1        -5.749610      -156.4549       2.555240
    3    1        -0.255301        -6.9471       4.539062


  Species H                   :

  List of atomic basis orbitals and eigenvalues:
    n    l      energy [Ha]    energy [eV]    outer radius [A]
    1    0        -0.237593        -6.4652       4.527807

  Assembling full basis from fixed parts.
  | Species S :   atomic orbital   1 s accepted.
  | Species S :   atomic orbital   2 s accepted.
  | Species S :    ionic orbital   3 s accepted.
  | Species S :   atomic orbital   3 s accepted.
  | Species S :   atomic orbital   2 p accepted.
  | Species S :   atomic orbital   3 p accepted.
  | Species S :    hydro orbital   2 p accepted.
  | Species S :    ionic orbital   3 d accepted.
  | Species S :    hydro orbital   4 f accepted.
  | Species H :   atomic orbital   1 s accepted.
  | Species H :    hydro orbital   2 s accepted.
  | Species H :    hydro orbital   2 p accepted.

  Basis size parameters after reduction:
  | Total number of radial functions:       12
  | Total number of basis functions :       40

  Per-task memory consumption for arrays in subroutine allocate_ext:
  |           4.170560MB.
  Testing on-site integration grid accuracy.
  |  Species  Function  <phi|h_atom|phi> (log., in eV)  <phi|h_atom|phi> (rad., in eV)
           1        1              -2413.0581659109              -2413.0570554886
           1        2               -211.6872814127               -211.6872738937
           1        3                -16.9208611991                -16.9208255642
           1        4                  7.5845503345                  7.5614252779
           1        5               -156.4548540501               -156.4548540107
           1        6                 -6.9485729304                 -6.9508389945
           1        7                  7.5803076288                  7.5258504832 ***
           1        8                  6.1173006980                  6.1127563631
           1        9                 24.7512183535                 24.7503558869
           2       10                 -6.4664147733                 -6.4652229287
           2       11                 13.7099062243                 13.7158503352
           2       12                 25.2661739479                 25.2663166526
 * Note: Onsite integrals marked "***" above are less accurate than
 * onsite_accuracy_threshold =    0.03000 eV. Usually, this is harmless.
 * When in doubt, tighten the "radial" and/or "radial_multiplier" flags to check.

  Preparing densities etc. for the partition functions (integrals / Hartree potential).

  Preparations completed.
  max(cpu_time)          :      0.119 s.
  Wall clock time (cpu1) :      0.119 s.
------------------------------------------------------------
  After prepare_scf [GB]:     22.27

  Initializing index lists of integration centers etc. from given atomic structure:
  Mapping all atomic coordinates to central unit cell.

  Initializing the k-points
  Using symmetry for reducing the k-points
  | k-points reduced from:       42 to       22
  | Number of k-points                             :        22
  The eigenvectors in the calculations are COMPLEX.
  | K-points in task   0:         5
  | K-points in task   1:         6
  | K-points in task   2:         6
  | K-points in task   3:         5
  | Number of basis functions in the Hamiltonian integrals       :      1838
  | Number of basis functions in a single unit cell              :        40
  | Number of centers in hartree potential                       :      1325
  | Number of centers in hartree multipole                       :       964
  | Number of centers in electron density summation              :       684
  | Number of centers in basis integrals                         :       735
  | Number of centers in integrals                               :       232
  | Number of centers in hamiltonian                             :       685
  | Number of centers in partition table from touching 0-cell    :       232
  | Number of centers in partition table total                   :       735
  | Consuming         86 KiB for k_phase.
  | Number of super-cells (origin) [n_cells]                     :        1449
  | Number of super-cells (after PM_index) [n_cells]             :         252
  | Number of super-cells in hamiltonian [n_cells_in_hamiltonian]:         252
  | Size of matrix packed + index [n_hamiltonian_matrix_size]    :       62979
  After initialize_bc_dependent_lists [GB]:     22.27

------------------------------------------------------------
          Begin self-consistency loop: Initialization.

          Date     :  20260302, Time     :  113640.908
------------------------------------------------------------

  Initializing relaxation algorithms.
  Finished initialization of distributed Hessian storage.
  | Global dimension:        21
  | BLACS block size:         6
  | Number of workers:        4

  Available memory per node after initialize_hartree_non_periodic_ewald [GB]:     22.27
  | Estimated reciprocal-space cutoff momentum G_max:         3.35284657 bohr^-1 .
  | Reciprocal lattice points for long-range Hartree potential:     156
  Available memory per node after initialize_recip_hartree_potential [GB]:     22.27
  Available memory per node after initialize_scalapack [GB]:     22.27
  Available memory per node after aims_elsi_init_scf [GB]:     22.27
  Available memory per node after initialize_fixed_grids [GB]:     22.27
  Partitioning the integration grid into batches with parallel hashing+maxmin method.
  | Number of batches:      324
  | Maximal batch size:     113
  | Minimal batch size:      52
  | Average batch size:      71.198
  | Standard deviation of batch sizes:      19.471

  Integration load balanced across     4 MPI tasks.
  Work distribution over tasks is as follows:
  Task     0 has       5790 integration points.
  Task     1 has       5773 integration points.
  Task     2 has       5773 integration points.
  Task     3 has       5732 integration points.
  Available memory per node after partition_grid [GB]:     22.27
  Initializing partition tables, free-atom densities, potentials, etc. across the integration grid (initialize_grid_storage).
  | initialize_grid_storage: Actual outermost partition radius vs. multipole_radius_free
  | (-- VB: in principle, multipole_radius_free should be larger, hence this output)
  | Species        1: Confinement radius =              4.999999999999999 AA, multipole_radius_free =              5.005414751018925 AA.
  | Species        1: outer_partition_radius set to              5.005414751018925 AA .
  | Species        2: Confinement radius =              4.999999999999999 AA, multipole_radius_free =              5.054417573612229 AA.
  | Species        2: outer_partition_radius set to              5.054417573612229 AA .
  | The sparse table of interatomic distances needs       2260.67 kbyte instead of      4321.80 kbyte of memory.
  | Net number of integration points:    23068
  | of which are non-zero points    :    18156
  | Numerical average free-atom electrostatic potential    :     -9.53360538 eV
  Available memory per node after initialize_grid_storage_p1 [GB]:     22.27
  Renormalizing the initial density to the exact electron count on the 3D integration grid.
  | Initial density: Formal number of electrons (from input files) :      19.0000000000
  | Integrated number of electrons on 3D grid     :      18.9988249611
  | Charge integration error                      :      -0.0011750389
  | Normalization factor for density and gradient :       1.0000618480
  Renormalizing the free-atom superposition density to the exact electron count on the 3D integration grid.
  | Formal number of electrons (from input files) :      19.0000000000
  | Integrated number of electrons on 3D grid     :      18.9988249611
  | Charge integration error                      :      -0.0011750389
  | Normalization factor for density and gradient :       1.0000618480
  Obtaining max. number of non-zero basis functions in each batch (get_n_compute_maxes).
  | Maximal number of non-zero basis functions:      559 in task     0
  | Maximal number of non-zero basis functions:      570 in task     1
  | Maximal number of non-zero basis functions:      595 in task     2
  | Maximal number of non-zero basis functions:      575 in task     3
  Available memory per node after get_n_compute_maxes_p1 [GB]:     22.27
  Allocating        0.055 MB for KS_eigenvector_complex
  Available memory per node after allocate_matrices [GB]:     22.27
  Available memory per node after init_comm_sparse_local_matrix_scalapack [GB]:     22.27
  Integrating Hamiltonian matrix: batch-based integration.
  Time summed over all CPUs for integration: real work        0.716 s, elapsed        0.732 s
  Available memory per node after integrate hamiltonian matrix [GB]:     22.26
  Integrating overlap matrix.
  Time summed over all CPUs for integration: real work        0.472 s, elapsed        0.490 s
  Available memory per node after integrate ovlp matrix [GB]:     22.25
  Available memory per node after ASI_callbacks invoke [GB]:     22.25
  Available memory per node after save_overlap_scalapack [GB]:     22.25

  Updating Kohn-Sham eigenvalues and eigenvectors using ELSI and the (modified) LAPACK eigensolver.
  Singularity check in k-point 4, task 0 (analysis for other k-points/tasks may follow below):
  Overlap matrix is not singular
  | Lowest and highest eigenvalues :  0.4668E-04,  0.1078E+02
  Finished singularity check of overlap matrix
  | Time :     0.000 s
  Starting LAPACK eigensolver
  Finished Cholesky decomposition
  | Time :     0.001 s
  Finished transformation to standard eigenproblem
  | Time :     0.000 s
  Finished solving standard eigenproblem
  | Time :     0.000 s
  Finished back-transformation of eigenvectors
  | Time :     0.000 s

  Obtaining occupation numbers and electronic chemical potential using ELSI.
  | Note that, for insulating systems, the printed 'chemical potential' value is not uniquely defined.
  | It can be anywhere in the energy gap, as long as it correctly separates occupied and unoccupied states.
  | In systems with a gap, the physically relevant chemical potential is the VBM or HOMO.

  | Chemical potential (Fermi level):    -7.34124885 eV
  Available memory per node after advance_KS_solution [GB]:     22.25
  Writing Kohn-Sham eigenvalues.
  K-point:       1 at    0.000000    0.000000    0.000000 (in units of recip. lattice)

  State    Occupation    Eigenvalue [Ha]    Eigenvalue [eV]
      1       2.00000         -88.946667        -2420.36195
      2       2.00000          -8.106572         -220.59104
      3       2.00000          -6.053038         -164.71155
      4       2.00000          -6.038746         -164.32265
      5       2.00000          -6.035256         -164.22768
      6       2.00000          -1.336125          -36.35781
      7       2.00000          -0.864577          -23.52634
      8       2.00000          -0.746503          -20.31337
      9       2.00000          -0.734843          -19.99610
     10       2.00000          -0.469801          -12.78393
     11      -0.00000          -0.183375           -4.98989
     12       0.00000          -0.162806           -4.43018
     13       0.00000          -0.143317           -3.89985
     14       0.00000           0.009577            0.26061
     15       0.00000           0.034707            0.94441
     16       0.00000           0.231300            6.29399
     17       0.00000           0.332403            9.04515
     18       0.00000           0.366223            9.96544

  What follows are estimated values for band gap, HOMO, LUMO, etc.
  | They are estimated on a discrete k-point grid and not necessarily exact.
  | For converged numbers, create a DOS and/or band structure plot on a denser k-grid.

  Highest occupied state (VBM) at     -7.36273319 eV (relative to internal zero)
  | Occupation number:      1.35449068
  | K-point:      22 at    0.857143    0.666667    0.500000 (in units of recip. lattice)

  Lowest unoccupied state (CBM) at    -7.26214854 eV (relative to internal zero)
  | Occupation number:      0.02458023
  | K-point:      19 at    0.571429    0.666667    0.500000 (in units of recip. lattice)

  This system has fractional occupation numbers. Since we use a finite k-point grid,
  this material is metallic within the approximate finite broadening function (occupation_type)
  applied to determine the occupation numbers. We conclude: there is no gap in this system.
  ESTIMATED overall HOMO-LUMO gap:      0.00000000 eV.
  Calculating total energy contributions from superposition of free atom densities.

  Total energy components:
  | Sum of eigenvalues            :        -236.45359284 Ha       -6434.22963125 eV
  | XC energy correction          :         -27.11723374 Ha        -737.89747391 eV
  | XC potential correction       :          35.08346027 Ha         954.66952699 eV
  | Free-atom electrostatic energy:        -172.11366001 Ha       -4683.45098036 eV
  | Hartree energy correction     :          -0.00000000 Ha          -0.00000000 eV
  | Entropy correction            :          -0.00017223 Ha          -0.00468649 eV
  | ---------------------------
  | Total energy                  :        -400.60102633 Ha      -10900.90855854 eV
  | Total energy, T -> 0          :        -400.60125596 Ha      -10900.91480719 eV  <-- do not rely on this value for anything but (periodic) metals
  | Electronic free energy        :        -400.60137078 Ha      -10900.91793152 eV

  Derived energy quantities:
  | Kinetic energy                :         405.40217317 Ha       11031.55441135 eV
  | Electrostatic energy          :        -778.88596576 Ha      -21194.56549597 eV
  | Energy correction for multipole
  | error in Hartree potential    :           0.00000000 Ha           0.00000000 eV
  | Sum of eigenvalues per atom                           :       -1608.55740781 eV
  | Total energy (T->0) per atom                          :       -2725.22870180 eV  <-- do not rely on this value for anything but (periodic) metals
  | Electronic free energy per atom                       :       -2725.22948288 eV
  Initialize hartree_potential_storage
  Max. number of atoms included in rho_multipole:            4

  End scf initialization - timings             :  max(cpu_time)    wall_clock(cpu1)
  | Time for scf. initialization                :        0.711 s           0.711 s
  | Boundary condition initialization           :        0.025 s           0.025 s
  | Relaxation initialization                   :        0.003 s           0.002 s
  | Integration                                 :        0.307 s           0.307 s
  | Solution of K.-S. eqns.                     :        0.004 s           0.004 s
  | Grid partitioning                           :        0.035 s           0.034 s
  | Preloading free-atom quantities on grid     :        0.329 s           0.330 s
  | Free-atom superposition energy              :        0.034 s           0.033 s
  | Total energy evaluation                     :        0.000 s           0.000 s

  Partial memory accounting:
  | Current value for overall tracked memory usage:
  |   Minimum:        1.308 MB (on task 3)
  |   Maximum:        1.319 MB (on task 1)
  |   Average:        1.313 MB
  | Peak value for overall tracked memory usage:
  |   Minimum:        5.151 MB (on task 0 after allocating wave)
  |   Maximum:        5.573 MB (on task 2 after allocating wave)
  |   Average:        5.335 MB
  | Largest tracked array allocation so far:
  |   Minimum:        2.384 MB (hamiltonian_shell on task 0)
  |   Maximum:        2.701 MB (hamiltonian_shell on task 2)
  |   Average:        2.522 MB
  Note:  These values currently only include a subset of arrays which are explicitly tracked.
  The "true" memory usage will be greater.
------------------------------------------------------------
  Available memory after initialize_scf [GB]:     22.25
  Available memory after allocating mixing [GB]:     22.25
  Evaluating new KS density using the density matrix
  Evaluating density matrix
  Time summed over all CPUs for getting density from density matrix: real work        1.198 s, elapsed        1.230 s
  Integration grid: deviation in total charge (<rho> - N_e) =   3.552714E-14

  Time for density update prior                :  max(cpu_time)    wall_clock(cpu1)
  | self-consistency iterative process          :        0.309 s           0.308 s
  Available memory before start of SCF loop [GB]:     22.25

------------------------------------------------------------
          Begin self-consistency iteration #    1

  Date     :  20260302, Time     :  113641.928
------------------------------------------------------------
  Pulay mixing of updated and previous charge densities.
  Available memory per node after mixing [GB]:     22.25
  Renormalizing the density to the exact electron count on the 3D integration grid.
  | Formal number of electrons (from input files) :      19.0000000000
  | Integrated number of electrons on 3D grid     :      19.0000000000
  | Charge integration error                      :       0.0000000000
  | Normalization factor for density and gradient :       1.0000000000

  Evaluating partitioned Hartree potential by multipole expansion.
  | Original multipole sum: apparent total charge =   0.690582E-14
  | Sum of charges compensated after spline to logarithmic grids =  -0.124493E-06
  | Analytical far-field extrapolation by fixed multipoles:
  | Hartree multipole sum: apparent total charge =   0.691043E-14
  Summing up the Hartree potential.
  Time summed over all CPUs for potential: real work        0.049 s, elapsed        0.050 s
  | RMS charge density error from multipole expansion :   0.606839E-03
  | Average real-space part of the electrostatic potential :     -0.00675664 eV

  Integrating Hamiltonian matrix: batch-based integration.
  Time summed over all CPUs for integration: real work        0.704 s, elapsed        0.729 s

  Updating Kohn-Sham eigenvalues and eigenvectors using ELSI and the (modified) LAPACK eigensolver.
  Starting LAPACK eigensolver
  Finished Cholesky decomposition
  | Time :     0.000 s
  Finished transformation to standard eigenproblem
  | Time :     0.000 s
  Finished solving standard eigenproblem
  | Time :     0.000 s
  Finished back-transformation of eigenvectors
  | Time :     0.000 s

  Obtaining occupation numbers and electronic chemical potential using ELSI.
  | Note that, for insulating systems, the printed 'chemical potential' value is not uniquely defined.
  | It can be anywhere in the energy gap, as long as it correctly separates occupied and unoccupied states.
  | In systems with a gap, the physically relevant chemical potential is the VBM or HOMO.

  | Chemical potential (Fermi level):    -7.16300919 eV
  Writing Kohn-Sham eigenvalues.
  K-point:       1 at    0.000000    0.000000    0.000000 (in units of recip. lattice)

  State    Occupation    Eigenvalue [Ha]    Eigenvalue [eV]
      1       2.00000         -88.930356        -2419.91810
      2       2.00000          -8.091932         -220.19267
      3       2.00000          -6.037534         -164.28966
      4       2.00000          -6.024316         -163.92997
      5       2.00000          -6.020887         -163.83666
      6       2.00000          -1.325175          -36.05985
      7       2.00000          -0.856472          -23.30578
      8       2.00000          -0.738761          -20.10270
      9       2.00000          -0.730044          -19.86550
     10       2.00000          -0.473672          -12.88928
     11      -0.00000          -0.178914           -4.86849
     12       0.00000          -0.157899           -4.29666
     13       0.00000          -0.139885           -3.80646
     14       0.00000           0.012855            0.34980
     15       0.00000           0.042948            1.16869
     16       0.00000           0.233746            6.36054
     17       0.00000           0.334288            9.09643
     18       0.00000           0.365540            9.94685

  What follows are estimated values for band gap, HOMO, LUMO, etc.
  | They are estimated on a discrete k-point grid and not necessarily exact.
  | For converged numbers, create a DOS and/or band structure plot on a denser k-grid.

  Highest occupied state (VBM) at     -7.19091085 eV (relative to internal zero)
  | Occupation number:      1.45248180
  | K-point:      22 at    0.857143    0.666667    0.500000 (in units of recip. lattice)

  Lowest unoccupied state (CBM) at    -7.04450328 eV (relative to internal zero)
  | Occupation number:     -0.07040356
  | K-point:      19 at    0.571429    0.666667    0.500000 (in units of recip. lattice)

  This system has fractional occupation numbers. Since we use a finite k-point grid,
  this material is metallic within the approximate finite broadening function (occupation_type)
  applied to determine the occupation numbers. We conclude: there is no gap in this system.
  ESTIMATED overall HOMO-LUMO gap:      0.00000000 eV.

  Total energy components:
  | Sum of eigenvalues            :        -236.23805502 Ha       -6428.36454868 eV
  | XC energy correction          :         -27.12524744 Ha        -738.11553765 eV
  | XC potential correction       :          35.09396407 Ha         954.95534989 eV
  | Free-atom electrostatic energy:        -172.11366001 Ha       -4683.45098036 eV
  | Hartree energy correction     :          -0.20846337 Ha          -5.67257687 eV
  | Entropy correction            :          -0.00011910 Ha          -0.00324086 eV
  | ---------------------------
  | Total energy                  :        -400.59146177 Ha      -10900.64829367 eV
  | Total energy, T -> 0          :        -400.59162057 Ha      -10900.65261482 eV  <-- do not rely on this value for anything but (periodic) metals
  | Electronic free energy        :        -400.59169997 Ha      -10900.65477539 eV

  Derived energy quantities:
  | Kinetic energy                :         405.48064204 Ha       11033.68965775 eV
  | Electrostatic energy          :        -778.94685637 Ha      -21196.22241377 eV
  | Energy correction for multipole
  | error in Hartree potential    :          -0.00008584 Ha          -0.00233578 eV
  | Sum of eigenvalues per atom                           :       -1607.09113717 eV
  | Total energy (T->0) per atom                          :       -2725.16315370 eV  <-- do not rely on this value for anything but (periodic) metals
  | Electronic free energy per atom                       :       -2725.16369385 eV
  Evaluating new KS density using the density matrix
  Evaluating density matrix
  Time summed over all CPUs for getting density from density matrix: real work        1.162 s, elapsed        1.193 s
  Integration grid: deviation in total charge (<rho> - N_e) =   0.000000E+00

  Self-consistency convergence accuracy:
  | Change of charge density      :  0.3536E+00
  | Change of unmixed KS density  :  0.2896E+02
  | Change of sum of eigenvalues  :  0.5865E+01 eV
  | Change of total energy        :  0.2603E+00 eV


------------------------------------------------------------
  End self-consistency iteration #     1       :  max(cpu_time)    wall_clock(cpu1)
  | Time for this iteration                     :        0.538 s           0.538 s
  | Charge density update                       :        0.299 s           0.299 s
  | Density mixing                              :        0.000 s           0.001 s
  | Hartree multipole update                    :        0.000 s           0.000 s
  | Hartree multipole summation                 :        0.052 s           0.052 s
  | Integration                                 :        0.183 s           0.183 s
  | Solution of K.-S. eqns.                     :        0.003 s           0.003 s
  | Total energy evaluation                     :        0.000 s           0.000 s

  Partial memory accounting:
  | Current value for overall tracked memory usage:
  |   Minimum:        5.200 MB (on task 3)
  |   Maximum:        5.240 MB (on task 0)
  |   Average:        5.229 MB
  | Peak value for overall tracked memory usage:
  |   Minimum:       10.515 MB (on task 0 after allocating gradient_basis_wave)
  |   Maximum:       11.018 MB (on task 2 after allocating gradient_basis_wave)
  |   Average:       10.724 MB
  | Largest tracked array allocation so far:
  |   Minimum:        2.384 MB (hamiltonian_shell on task 0)
  |   Maximum:        2.701 MB (hamiltonian_shell on task 2)
  |   Average:        2.522 MB
  Note:  These values currently only include a subset of arrays which are explicitly tracked.
  The "true" memory usage will be greater.
------------------------------------------------------------

------------------------------------------------------------
          Begin self-consistency iteration #    2

  Date     :  20260302, Time     :  113642.466
------------------------------------------------------------
  Pulay mixing of updated and previous charge densities.
  Available memory per node after mixing [GB]:     22.25
  Renormalizing the density to the exact electron count on the 3D integration grid.
  | Formal number of electrons (from input files) :      19.0000000000
  | Integrated number of electrons on 3D grid     :      19.0000000000
  | Charge integration error                      :       0.0000000000
  | Normalization factor for density and gradient :       1.0000000000

  Evaluating partitioned Hartree potential by multipole expansion.
  | Original multipole sum: apparent total charge =   0.250897E-13
  | Sum of charges compensated after spline to logarithmic grids =  -0.296080E-05
  | Analytical far-field extrapolation by fixed multipoles:
  | Hartree multipole sum: apparent total charge =   0.257538E-13
  Summing up the Hartree potential.
  Time summed over all CPUs for potential: real work        0.056 s, elapsed        0.059 s
  | RMS charge density error from multipole expansion :   0.160637E-01
  | Average real-space part of the electrostatic potential :     -0.17855831 eV

  Integrating Hamiltonian matrix: batch-based integration.
  Time summed over all CPUs for integration: real work        0.708 s, elapsed        0.729 s

  Updating Kohn-Sham eigenvalues and eigenvectors using ELSI and the (modified) LAPACK eigensolver.
  Starting LAPACK eigensolver
  Finished Cholesky decomposition
  | Time :     0.000 s
  Finished transformation to standard eigenproblem
  | Time :     0.000 s
  Finished solving standard eigenproblem
  | Time :     0.000 s
  Finished back-transformation of eigenvectors
  | Time :     0.000 s

  Obtaining occupation numbers and electronic chemical potential using ELSI.
  | Note that, for insulating systems, the printed 'chemical potential' value is not uniquely defined.
  | It can be anywhere in the energy gap, as long as it correctly separates occupied and unoccupied states.
  | In systems with a gap, the physically relevant chemical potential is the VBM or HOMO.

  | Chemical potential (Fermi level):    -2.83947737 eV
  What follows are estimated values for band gap, HOMO, LUMO, etc.
  | They are estimated on a discrete k-point grid and not necessarily exact.
  | For converged numbers, create a DOS and/or band structure plot on a denser k-grid.

  Highest occupied state (VBM) at     -2.86984963 eV (relative to internal zero)
  | Occupation number:      1.48871840
  | K-point:      18 at    0.571429    0.000000    0.500000 (in units of recip. lattice)

  Lowest unoccupied state (CBM) at    -2.51957682 eV (relative to internal zero)
  | Occupation number:     -0.00005880
  | K-point:       2 at    0.000000    0.000000    0.500000 (in units of recip. lattice)

  This system has fractional occupation numbers. Since we use a finite k-point grid,
  this material is metallic within the approximate finite broadening function (occupation_type)
  applied to determine the occupation numbers. We conclude: there is no gap in this system.
  ESTIMATED overall HOMO-LUMO gap:      0.00000000 eV.

  Checking to see if s.c.f. parameters should be adjusted.

  Total energy components:
  | Sum of eigenvalues            :        -231.02463363 Ha       -6286.50013479 eV
  | XC energy correction          :         -27.34446148 Ha        -744.08065532 eV
  | XC potential correction       :          35.38016445 Ha         962.74325843 eV
  | Free-atom electrostatic energy:        -172.11366001 Ha       -4683.45098036 eV
  | Hartree energy correction     :          -5.51090730 Ha        -149.95941745 eV
  | Entropy correction            :          -0.00012552 Ha          -0.00341558 eV
  | ---------------------------
  | Total energy                  :        -400.61349798 Ha      -10901.24792949 eV
  | Total energy, T -> 0          :        -400.61366534 Ha      -10901.25248360 eV  <-- do not rely on this value for anything but (periodic) metals
  | Electronic free energy        :        -400.61374902 Ha      -10901.25476066 eV

  Derived energy quantities:
  | Kinetic energy                :         407.11090755 Ha       11078.05143959 eV
  | Electrostatic energy          :        -780.37994405 Ha      -21235.21871376 eV
  | Energy correction for multipole
  | error in Hartree potential    :          -0.00265416 Ha          -0.07222328 eV
  | Sum of eigenvalues per atom                           :       -1571.62503370 eV
  | Total energy (T->0) per atom                          :       -2725.31312090 eV  <-- do not rely on this value for anything but (periodic) metals
  | Electronic free energy per atom                       :       -2725.31369016 eV
  Evaluating new KS density using the density matrix
  Evaluating density matrix
  Time summed over all CPUs for getting density from density matrix: real work        1.165 s, elapsed        1.194 s
  Integration grid: deviation in total charge (<rho> - N_e) =   1.065814E-14

  Self-consistency convergence accuracy:
  | Change of charge density      :  0.3421E+00
  | Change of unmixed KS density  :  0.6551E-02
  | Change of sum of eigenvalues  :  0.1419E+03 eV
  | Change of total energy        : -0.5996E+00 eV


------------------------------------------------------------
  End self-consistency iteration #     2       :  max(cpu_time)    wall_clock(cpu1)
  | Time for this iteration                     :        0.548 s           0.548 s
  | Charge density update                       :        0.300 s           0.299 s
  | Density mixing                              :        0.001 s           0.001 s
  | Hartree multipole update                    :        0.000 s           0.000 s
  | Hartree multipole summation                 :        0.061 s           0.061 s
  | Integration                                 :        0.183 s           0.183 s
  | Solution of K.-S. eqns.                     :        0.003 s           0.003 s
  | Total energy evaluation                     :        0.000 s           0.000 s

  Partial memory accounting:
  | Current value for overall tracked memory usage:
  |   Minimum:        5.201 MB (on task 3)
  |   Maximum:        5.240 MB (on task 0)
  |   Average:        5.230 MB
  | Peak value for overall tracked memory usage:
  |   Minimum:       10.516 MB (on task 0 after allocating gradient_basis_wave)
  |   Maximum:       11.019 MB (on task 2 after allocating gradient_basis_wave)
  |   Average:       10.725 MB
  | Largest tracked array allocation so far:
  |   Minimum:        2.384 MB (hamiltonian_shell on task 0)
  |   Maximum:        2.701 MB (hamiltonian_shell on task 2)
  |   Average:        2.522 MB
  Note:  These values currently only include a subset of arrays which are explicitly tracked.
  The "true" memory usage will be greater.
------------------------------------------------------------

------------------------------------------------------------
          Begin self-consistency iteration #    3

  Date     :  20260302, Time     :  113643.014
------------------------------------------------------------
  Pulay mixing of updated and previous charge densities.
  Available memory per node after mixing [GB]:     22.25
  Renormalizing the density to the exact electron count on the 3D integration grid.
  | Formal number of electrons (from input files) :      19.0000000000
  | Integrated number of electrons on 3D grid     :      19.0000000000
  | Charge integration error                      :      -0.0000000000
  | Normalization factor for density and gradient :       1.0000000000

  Evaluating partitioned Hartree potential by multipole expansion.
  | Original multipole sum: apparent total charge =   0.373886E-14
  | Sum of charges compensated after spline to logarithmic grids =  -0.290563E-05
  | Analytical far-field extrapolation by fixed multipoles:
  | Hartree multipole sum: apparent total charge =   0.373886E-14
  Summing up the Hartree potential.
  Time summed over all CPUs for potential: real work        0.055 s, elapsed        0.057 s
  | RMS charge density error from multipole expansion :   0.153381E-01
  | Average real-space part of the electrostatic potential :     -0.17030966 eV

  Integrating Hamiltonian matrix: batch-based integration.
  Time summed over all CPUs for integration: real work        0.700 s, elapsed        0.724 s

  Updating Kohn-Sham eigenvalues and eigenvectors using ELSI and the (modified) LAPACK eigensolver.
  Starting LAPACK eigensolver
  Finished Cholesky decomposition
  | Time :     0.000 s
  Finished transformation to standard eigenproblem
  | Time :     0.000 s
  Finished solving standard eigenproblem
  | Time :     0.000 s
  Finished back-transformation of eigenvectors
  | Time :     0.000 s

  Obtaining occupation numbers and electronic chemical potential using ELSI.
  | Note that, for insulating systems, the printed 'chemical potential' value is not uniquely defined.
  | It can be anywhere in the energy gap, as long as it correctly separates occupied and unoccupied states.
  | In systems with a gap, the physically relevant chemical potential is the VBM or HOMO.

  | Chemical potential (Fermi level):    -3.11407996 eV
  What follows are estimated values for band gap, HOMO, LUMO, etc.
  | They are estimated on a discrete k-point grid and not necessarily exact.
  | For converged numbers, create a DOS and/or band structure plot on a denser k-grid.

  Highest occupied state (VBM) at     -3.14400736 eV (relative to internal zero)
  | Occupation number:      1.48225990
  | K-point:      18 at    0.571429    0.000000    0.500000 (in units of recip. lattice)

  Lowest unoccupied state (CBM) at    -2.65978469 eV (relative to internal zero)
  | Occupation number:     -0.00000000
  | K-point:       2 at    0.000000    0.000000    0.500000 (in units of recip. lattice)

  This system has fractional occupation numbers. Since we use a finite k-point grid,
  this material is metallic within the approximate finite broadening function (occupation_type)
  applied to determine the occupation numbers. We conclude: there is no gap in this system.
  ESTIMATED overall HOMO-LUMO gap:      0.00000000 eV.

  Total energy components:
  | Sum of eigenvalues            :        -231.30328069 Ha       -6294.08250689 eV
  | XC energy correction          :         -27.33265456 Ha        -743.75937266 eV
  | XC potential correction       :          35.36473956 Ha         962.32352603 eV
  | Free-atom electrostatic energy:        -172.11366001 Ha       -4683.45098036 eV
  | Hartree energy correction     :          -5.21751722 Ha        -141.97586729 eV
  | Entropy correction            :          -0.00012404 Ha          -0.00337539 eV
  | ---------------------------
  | Total energy                  :        -400.60237292 Ha      -10900.94520118 eV
  | Total energy, T -> 0          :        -400.60253831 Ha      -10900.94970169 eV  <-- do not rely on this value for anything but (periodic) metals
  | Electronic free energy        :        -400.60262101 Ha      -10900.95195195 eV

  Derived energy quantities:
  | Kinetic energy                :         407.04101571 Ha       11076.14958573 eV
  | Electrostatic energy          :        -780.31073407 Ha      -21233.33541425 eV
  | Energy correction for multipole
  | error in Hartree potential    :          -0.00247263 Ha          -0.06728364 eV
  | Sum of eigenvalues per atom                           :       -1573.52062672 eV
  | Total energy (T->0) per atom                          :       -2725.23742542 eV  <-- do not rely on this value for anything but (periodic) metals
  | Electronic free energy per atom                       :       -2725.23798799 eV
  Evaluating new KS density using the density matrix
  Evaluating density matrix
  Time summed over all CPUs for getting density from density matrix: real work        1.154 s, elapsed        1.182 s
  Integration grid: deviation in total charge (<rho> - N_e) =   6.039613E-14

  Self-consistency convergence accuracy:
  | Change of charge density      :  0.2054E+00
  | Change of unmixed KS density  :  0.2831E+00
  | Change of sum of eigenvalues  : -0.7582E+01 eV
  | Change of total energy        :  0.3027E+00 eV


------------------------------------------------------------
  End self-consistency iteration #     3       :  max(cpu_time)    wall_clock(cpu1)
  | Time for this iteration                     :        0.541 s           0.541 s
  | Charge density update                       :        0.297 s           0.296 s
  | Density mixing                              :        0.001 s           0.001 s
  | Hartree multipole update                    :        0.000 s           0.000 s
  | Hartree multipole summation                 :        0.059 s           0.059 s
  | Integration                                 :        0.182 s           0.181 s
  | Solution of K.-S. eqns.                     :        0.003 s           0.004 s
  | Total energy evaluation                     :        0.000 s           0.000 s

  Partial memory accounting:
  | Current value for overall tracked memory usage:
  |   Minimum:        5.201 MB (on task 3)
  |   Maximum:        5.241 MB (on task 0)
  |   Average:        5.230 MB
  | Peak value for overall tracked memory usage:
  |   Minimum:       10.516 MB (on task 0 after allocating gradient_basis_wave)
  |   Maximum:       11.019 MB (on task 2 after allocating gradient_basis_wave)
  |   Average:       10.725 MB
  | Largest tracked array allocation so far:
  |   Minimum:        2.384 MB (hamiltonian_shell on task 0)
  |   Maximum:        2.701 MB (hamiltonian_shell on task 2)
  |   Average:        2.522 MB
  Note:  These values currently only include a subset of arrays which are explicitly tracked.
  The "true" memory usage will be greater.
------------------------------------------------------------

------------------------------------------------------------
          Begin self-consistency iteration #    4

  Date     :  20260302, Time     :  113643.555
------------------------------------------------------------
  Pulay mixing of updated and previous charge densities.
  Available memory per node after mixing [GB]:     22.25
  Renormalizing the density to the exact electron count on the 3D integration grid.
  | Formal number of electrons (from input files) :      19.0000000000
  | Integrated number of electrons on 3D grid     :      19.0000000000
  | Charge integration error                      :      -0.0000000000
  | Normalization factor for density and gradient :       1.0000000000

  Evaluating partitioned Hartree potential by multipole expansion.
  | Original multipole sum: apparent total charge =  -0.213508E-13
  | Sum of charges compensated after spline to logarithmic grids =   0.192010E-05
  | Analytical far-field extrapolation by fixed multipoles:
  | Hartree multipole sum: apparent total charge =  -0.216460E-13
  Summing up the Hartree potential.
  Time summed over all CPUs for potential: real work        0.055 s, elapsed        0.056 s
  | RMS charge density error from multipole expansion :   0.136347E-01
  | Average real-space part of the electrostatic potential :     -0.15508959 eV

  Integrating Hamiltonian matrix: batch-based integration.
  Time summed over all CPUs for integration: real work        0.699 s, elapsed        0.722 s

  Updating Kohn-Sham eigenvalues and eigenvectors using ELSI and the (modified) LAPACK eigensolver.
  Starting LAPACK eigensolver
  Finished Cholesky decomposition
  | Time :     0.000 s
  Finished transformation to standard eigenproblem
  | Time :     0.000 s
  Finished solving standard eigenproblem
  | Time :     0.001 s
  Finished back-transformation of eigenvectors
  | Time :     0.000 s

  Obtaining occupation numbers and electronic chemical potential using ELSI.
  | Note that, for insulating systems, the printed 'chemical potential' value is not uniquely defined.
  | It can be anywhere in the energy gap, as long as it correctly separates occupied and unoccupied states.
  | In systems with a gap, the physically relevant chemical potential is the VBM or HOMO.

  | Chemical potential (Fermi level):    -2.73921560 eV
  What follows are estimated values for band gap, HOMO, LUMO, etc.
  | They are estimated on a discrete k-point grid and not necessarily exact.
  | For converged numbers, create a DOS and/or band structure plot on a denser k-grid.

  Highest occupied state (VBM) at     -2.76922203 eV (relative to internal zero)
  | Occupation number:      1.48340931
  | K-point:      18 at    0.571429    0.000000    0.500000 (in units of recip. lattice)

  Lowest unoccupied state (CBM) at    -2.34745925 eV (relative to internal zero)
  | Occupation number:     -0.00000045
  | K-point:       2 at    0.000000    0.000000    0.500000 (in units of recip. lattice)

  This system has fractional occupation numbers. Since we use a finite k-point grid,
  this material is metallic within the approximate finite broadening function (occupation_type)
  applied to determine the occupation numbers. We conclude: there is no gap in this system.
  ESTIMATED overall HOMO-LUMO gap:      0.00000000 eV.

  Total energy components:
  | Sum of eigenvalues            :        -231.00495769 Ha       -6285.96472506 eV
  | XC energy correction          :         -27.32138574 Ha        -743.45273241 eV
  | XC potential correction       :          35.35109854 Ha         961.95233496 eV
  | Free-atom electrostatic energy:        -172.11366001 Ha       -4683.45098036 eV
  | Hartree energy correction     :          -5.55097399 Ha        -151.04968760 eV
  | Entropy correction            :          -0.00012560 Ha          -0.00341786 eV
  | ---------------------------
  | Total energy                  :        -400.63987889 Ha      -10901.96579046 eV
  | Total energy, T -> 0          :        -400.64004636 Ha      -10901.97034761 eV  <-- do not rely on this value for anything but (periodic) metals
  | Electronic free energy        :        -400.64013010 Ha      -10901.97262619 eV

  Derived energy quantities:
  | Kinetic energy                :         406.93645909 Ha       11073.30445535 eV
  | Electrostatic energy          :        -780.25495224 Ha      -21231.81751340 eV
  | Energy correction for multipole
  | error in Hartree potential    :          -0.00371920 Ha          -0.10120451 eV
  | Sum of eigenvalues per atom                           :       -1571.49118127 eV
  | Total energy (T->0) per atom                          :       -2725.49258690 eV  <-- do not rely on this value for anything but (periodic) metals
  | Electronic free energy per atom                       :       -2725.49315655 eV
  Evaluating new KS density using the density matrix
  Evaluating density matrix
  Time summed over all CPUs for getting density from density matrix: real work        1.160 s, elapsed        1.189 s
  Integration grid: deviation in total charge (<rho> - N_e) =  -1.065814E-14

  Self-consistency convergence accuracy:
  | Change of charge density      :  0.1994E+00
  | Change of unmixed KS density  :  0.9202E-02
  | Change of sum of eigenvalues  :  0.8118E+01 eV
  | Change of total energy        : -0.1021E+01 eV


------------------------------------------------------------
  End self-consistency iteration #     4       :  max(cpu_time)    wall_clock(cpu1)
  | Time for this iteration                     :        0.542 s           0.543 s
  | Charge density update                       :        0.298 s           0.299 s
  | Density mixing                              :        0.001 s           0.001 s
  | Hartree multipole update                    :        0.000 s           0.001 s
  | Hartree multipole summation                 :        0.058 s           0.058 s
  | Integration                                 :        0.181 s           0.181 s
  | Solution of K.-S. eqns.                     :        0.003 s           0.003 s
  | Total energy evaluation                     :        0.000 s           0.000 s

  Partial memory accounting:
  | Current value for overall tracked memory usage:
  |   Minimum:        5.201 MB (on task 3)
  |   Maximum:        5.241 MB (on task 0)
  |   Average:        5.230 MB
  | Peak value for overall tracked memory usage:
  |   Minimum:       10.516 MB (on task 0 after allocating gradient_basis_wave)
  |   Maximum:       11.019 MB (on task 2 after allocating gradient_basis_wave)
  |   Average:       10.725 MB
  | Largest tracked array allocation so far:
  |   Minimum:        2.384 MB (hamiltonian_shell on task 0)
  |   Maximum:        2.701 MB (hamiltonian_shell on task 2)
  |   Average:        2.522 MB
  Note:  These values currently only include a subset of arrays which are explicitly tracked.
  The "true" memory usage will be greater.
------------------------------------------------------------

------------------------------------------------------------
          Begin self-consistency iteration #    5

  Date     :  20260302, Time     :  113644.098
------------------------------------------------------------
  Pulay mixing of updated and previous charge densities.
  Available memory per node after mixing [GB]:     22.25
  Renormalizing the density to the exact electron count on the 3D integration grid.
  | Formal number of electrons (from input files) :      19.0000000000
  | Integrated number of electrons on 3D grid     :      19.0000000000
  | Charge integration error                      :       0.0000000000
  | Normalization factor for density and gradient :       1.0000000000

  Evaluating partitioned Hartree potential by multipole expansion.
  | Original multipole sum: apparent total charge =   0.132213E-13
  | Sum of charges compensated after spline to logarithmic grids =  -0.236589E-04
  | Analytical far-field extrapolation by fixed multipoles:
  | Hartree multipole sum: apparent total charge =   0.133074E-13
  Summing up the Hartree potential.
  Time summed over all CPUs for potential: real work        0.056 s, elapsed        0.057 s
  | RMS charge density error from multipole expansion :   0.198752E-01
  | Average real-space part of the electrostatic potential :     -0.19949093 eV

  Integrating Hamiltonian matrix: batch-based integration.
  Time summed over all CPUs for integration: real work        0.648 s, elapsed        0.671 s

  Updating Kohn-Sham eigenvalues and eigenvectors using ELSI and the (modified) LAPACK eigensolver.
  Starting LAPACK eigensolver
  Finished Cholesky decomposition
  | Time :     0.000 s
  Finished transformation to standard eigenproblem
  | Time :     0.000 s
  Finished solving standard eigenproblem
  | Time :     0.001 s
  Finished back-transformation of eigenvectors
  | Time :     0.000 s

  Obtaining occupation numbers and electronic chemical potential using ELSI.
  | Note that, for insulating systems, the printed 'chemical potential' value is not uniquely defined.
  | It can be anywhere in the energy gap, as long as it correctly separates occupied and unoccupied states.
  | In systems with a gap, the physically relevant chemical potential is the VBM or HOMO.

  | Chemical potential (Fermi level):    -5.39804506 eV
  What follows are estimated values for band gap, HOMO, LUMO, etc.
  | They are estimated on a discrete k-point grid and not necessarily exact.
  | For converged numbers, create a DOS and/or band structure plot on a denser k-grid.

[...]
  -----------------------------------------------------------------------------------------------------------------------------------------------------------
    Nuclear Hellmann-Feynman      :    -0.3051574860E+02   -0.3952903417E+02   -0.3543345163E+02    0.2717099533E+01    0.2464633319E+01   -0.5785911420E+01
    Multipole Hellmann-Feynman    :    -0.5124340576E+02   -0.6989176072E+02   -0.5976459300E+02    0.7887485360E+01    0.1455406774E+01   -0.1251588129E+02
    On-site Multipole corrections :    -0.2019630081E+00   -0.2253720344E+00   -0.2127226969E+00    0.1027079617E-02    0.2159156951E-02   -0.2327677727E-01
    Strain deriv. of the orbitals :     0.7557719744E+02    0.9086601649E+02    0.8689342167E+02   -0.9573539949E+01   -0.3456951306E+01    0.1287499740E+02
  -----------------------------------------------------------------------------------------------------------------------------------------------------------
  Sum of all contributions        :    -0.6383919924E+01   -0.1878015044E+02   -0.8517345658E+01    0.1032072023E+01    0.4652479444E+00   -0.5450072091E+01

  +-------------------------------------------------------------------+
  |              Analytical stress tensor - Symmetrized               |
  |                  Cartesian components [eV/A**3]                   |
  +-------------------------------------------------------------------+
  |                x                y                z                |
  |                                                                   |
  |  x        -0.36255841       0.05861389       0.02642257           |
  |  y         0.05861389      -1.06657063      -0.30952291           |
  |  z         0.02642257      -0.30952291      -0.48372087           |
  |                                                                   |
  |  Pressure:       0.63761664   [eV/A**3]                           |
  |                                                                   |
  +-------------------------------------------------------------------+

 * Warning: Stress tensor is anisotropic. Be aware that pressure is an isotropic quantity.


  Self-consistency convergence accuracy:
  | Change of charge density      :  0.6683E-04
  | Change of unmixed KS density  :  0.1249E-03
  | Change of sum of eigenvalues  :  0.5727E-02 eV
  | Change of total energy        :  0.4880E-06 eV
  | Change of forces              :  0.1906E-02 eV/A

  Writing Kohn-Sham eigenvalues.
  K-point:       1 at    0.000000    0.000000    0.000000 (in units of recip. lattice)

  State    Occupation    Eigenvalue [Ha]    Eigenvalue [eV]
      1       2.00000         -88.740036        -2414.73923
      2       2.00000          -7.844663         -213.46415
      3       2.00000          -5.817026         -158.28932
      4       2.00000          -5.815181         -158.23912
      5       2.00000          -5.811294         -158.13337
      6       2.00000          -1.038181          -28.25035
      7       2.00000          -0.468006          -12.73509
      8       2.00000          -0.325883           -8.86773
      9       2.00000          -0.311629           -8.47987
     10       2.00000          -0.245235           -6.67319
     11       0.00000          -0.057880           -1.57501
     12       0.00000           0.006315            0.17183
     13       0.00000           0.120597            3.28162
     14       0.00000           0.201404            5.48049
     15       0.00000           0.383679           10.44044
     16       0.00000           0.462457           12.58408
     17       0.00000           0.566404           15.41264
     18       0.00000           0.633129           17.22832

  What follows are estimated values for band gap, HOMO, LUMO, etc.
  | They are estimated on a discrete k-point grid and not necessarily exact.
  | For converged numbers, create a DOS and/or band structure plot on a denser k-grid.

  Highest occupied state (VBM) at     -5.32098675 eV (relative to internal zero)
  | Occupation number:      1.78825617
  | K-point:      16 at    0.428571    0.666667    0.000000 (in units of recip. lattice)

  Lowest unoccupied state (CBM) at    -5.21285066 eV (relative to internal zero)
  | Occupation number:      0.22183514
  | K-point:       3 at    0.000000    0.333333    0.000000 (in units of recip. lattice)

  This system has fractional occupation numbers. Since we use a finite k-point grid,
  this material is metallic within the approximate finite broadening function (occupation_type)
  applied to determine the occupation numbers. We conclude: there is no gap in this system.
  ESTIMATED overall HOMO-LUMO gap:      0.00000000 eV.

  | Chemical Potential                          :    -5.26642271 eV
  | Note that, for insulating systems, the printed 'chemical potential' value is not uniquely defined.
  | It can be anywhere in the energy gap, as long as it correctly separates occupied and unoccupied states.
  | In systems with a gap, the physically relevant chemical potential is the VBM or HOMO.

  Self-consistency cycle converged.


------------------------------------------------------------
  End self-consistency iteration #    12       :  max(cpu_time)    wall_clock(cpu1)
  | Time for this iteration                     :       27.583 s          27.583 s
  | Charge density & force component update     :       25.768 s          25.767 s
  | Density mixing                              :        0.001 s           0.002 s
  | Hartree multipole update                    :        0.000 s           0.000 s
  | Hartree multipole summation                 :        0.695 s           0.695 s
  | Hartree pot. SCF incomplete forces          :        0.580 s           0.581 s
  | Integration                                 :        0.533 s           0.533 s
  | Solution of K.-S. eqns.                     :        0.004 s           0.005 s
  | Total energy evaluation                     :        0.000 s           0.000 s

  Partial memory accounting:
  | Current value for overall tracked memory usage:
  |   Minimum:        6.497 MB (on task 1)
  |   Maximum:        6.526 MB (on task 2)
  |   Average:        6.510 MB
  | Peak value for overall tracked memory usage:
  |   Minimum:       45.763 MB (on task 2 after allocating d_wave)
  |   Maximum:       47.157 MB (on task 0 after allocating d_wave)
  |   Average:       46.222 MB
  | Largest tracked array allocation so far:
  |   Minimum:       14.996 MB (density_matrix_con on task 2)
  |   Maximum:       15.820 MB (density_matrix_con on task 0)
  |   Average:       15.267 MB
  Note:  These values currently only include a subset of arrays which are explicitly tracked.
  The "true" memory usage will be greater.
------------------------------------------------------------
  Removing unitary transformations (pure translations, rotations) from forces on atoms.
  Atomic forces before filtering:
  | Net force on center of mass :  -0.103763E-01 -0.773478E-02  0.973081E-02 eV/A
  Atomic forces after filtering:
  | Net force on center of mass :   0.223008E-15  0.000000E+00  0.000000E+00 eV/A

  Energy and forces in a compact form:
  | Total energy uncorrected      :         -0.109193525909565E+05 eV
  | Total energy corrected        :         -0.109193557629958E+05 eV  <-- do not rely on this value for anything but (periodic) metals
  | Electronic free energy        :         -0.109193573490155E+05 eV
  Total atomic forces (unitary forces cleaned) [eV/Ang]:
  |    1          0.163118797529984E+01          0.921991722029931E+00         -0.192134681612523E+01
  |    2         -0.113431215823750E+01          0.119940279839970E+00          0.872093679851007E+00
  |    3         -0.264036986920415E+00         -0.189620380553356E+01         -0.105175840105059E+01
  |    4         -0.232838830141933E+00          0.854271803663660E+00          0.210101153732482E+01

  Summary for the variables related to the applied external pressure:
  | Cell volume                   :     17.60797642 A**3
  | External pressure             :      0.93622640 eV/A**3
  | Internal pressure             :      0.63761664 eV/A**3
  | Total pressure inside system  :     -0.29860977 eV/A**3
  Since the calculation is done at T = 0K, the Gibbs free energy is G = E_tot + p_ext * V:
  | Gibbs free energy             :  -0.109028675385582E+05 eV

  ------------------------------------ 
  Start decomposition of the XC Energy 
  ------------------------------------ 
  X and C from original XC functional choice 
  Hartree-Fock Energy :          0.000000000 Ha              0.000000000 eV
  X Energy            :        -26.185478684 Ha           -712.543128799 eV
  C Energy            :         -0.794922058 Ha            -21.630929768 eV
  XC Energy w/o HF    :        -26.980400742 Ha           -734.174058567 eV
  Total XC Energy     :        -26.980400742 Ha           -734.174058567 eV
  ------------------------------------ 
  LDA X and C from self-consistent density 
  X Energy LDA        :        -24.374937922 Ha           -663.275807950 eV
  C Energy LDA        :         -1.416775566 Ha            -38.552424667 eV
  ------------------------------------ 
  End decomposition of the XC Energy 
  ------------------------------------ 

------------------------------------------------------------
  Relaxation / MD: End force evaluation.       :  max(cpu_time)    wall_clock(cpu1)
  | Time for this force evaluation              :       48.360 s          48.360 s

------------------------------------------------------------
  Geometry optimization: Attempting to predict improved coordinates.

  +-------------------------------------------------------------------+
  | Generalized derivatives on lattice vectors [eV/A]                 |
  +-------------------------------------------------------------------+
  |lattice_vector       6.40633058       0.86530433      -0.51112599  |
  |lattice_vector       3.82891595       0.12665489      -3.65542694  |
  |lattice_vector      -2.14849418      -1.33766107       2.49052483  |
  +-------------------------------------------------------------------+
  | Forces on lattice vectors cleaned from atomic contributions [eV/A]|
  +-------------------------------------------------------------------+
  |lattice_vector      -6.40633058      -0.86530433       0.51112599  |
  |lattice_vector      -3.82891595      -0.12665489       3.65542694  |
  |lattice_vector       2.14849418       1.33766107      -2.49052483  |
  +-------------------------------------------------------------------+
  Removing unitary transformations (pure translations, rotations) from forces on atoms.
  Atomic forces before filtering:
  | Net force on center of mass :   0.223008E-15  0.000000E+00  0.000000E+00 eV/A
  Atomic forces after filtering:
  | Net force on center of mass :   0.133805E-15  0.000000E+00  0.000000E+00 eV/A
  Net remaining forces (excluding translations, rotations) in present geometry:
  || Forces on atoms   || =   0.210101E+01 eV/A.
  || Forces on lattice || =   0.640633E+01 eV/A^3.
  Maximum force component is  0.640633E+01 eV/A.
  Present geometry is not yet converged.

 * Maximum number of relaxation steps exceeded.
 * Aborting optimization.
------------------------------------------------------------
  Reminder: External pressure of  0.936E+00 eV/A**3 ( 0.150E+03 GPa) is applied to system.
  Final atomic structure:
                         x [A]             y [A]             z [A]
  lattice_vector         1.77495416       -0.90417369        1.11734667
  lattice_vector        -0.12705128        2.55252851        0.99675796
  lattice_vector         0.36460044        1.37254713        4.89149412

            atom         1.29130172       -0.95792841        0.61034676  H
            atom         1.34379007        1.97819221        4.79536774  H
            atom         0.66853069        1.04259606        2.21033008  H
            atom         0.70407593        2.12518798        2.96897003  S

  Fractional coordinates:
                         L1                L2                L3
       atom_frac         0.72343591       -0.10923042       -0.01821645  H
       atom_frac         0.65816400        0.63095709        0.70143371  H
       atom_frac         0.34170815        0.36891217        0.29864238  H
       atom_frac         0.37709466        0.77052815        0.36381409  S
------------------------------------------------------------

------------------------------------------------------------------------------
  Final output of selected total energy values:

  The following output summarizes some interesting total energy values
  at the end of a run (AFTER all relaxation, molecular dynamics, etc.).

  | Total energy of the DFT / Hartree-Fock s.c.f. calculation      :         -10919.352590956 eV
  | Final zero-broadening corrected energy (caution - metals only) :         -10919.355762996 eV
  | For reference only, the value of 1 Hartree used in FHI-aims is :             27.211384500 eV
  | For reference only, the overall average (free atom contribution
  | + realspace contribution) of the electrostatic potential after
  | s.c.f. convergence is                                          :            -18.612970282 eV

  Before relying on these values, please be sure to understand exactly which
  total energy value is referred to by a given number. Different objects may
  all carry the same name 'total energy'. Definitions:

  Total energy of the DFT / Hartree-Fock s.c.f. calculation:
  | Note that this energy does not include ANY quantities calculated after the
  | s.c.f. cycle, in particular not ANY RPA, MP2, etc. many-body perturbation terms.

  Final zero-broadening corrected energy:
  | For metallic systems only, a broadening of the occupation numbers at the Fermi
  | level can be extrapolated back to zero broadening by an electron-gas inspired
  | formula. For all systems that are not real metals, this value can be
  | meaningless and should be avoided.

------------------------------------------------------------------------------
  Methods described in the following list of references were used in this FHI-aims run.
  If you publish the results, please make sure to cite these reference if they apply.
  FHI-aims is an academic code, and for our developers (often, Ph.D. students
  and postdocs), scientific credit in the community is essential.
  Thank you for helping us!

  For any use of FHI-aims, please cite:

    Volker Blum, Ralf Gehrke, Felix Hanke, Paula Havu, Ville Havu,
    Xinguo Ren, Karsten Reuter, and Matthias Scheffler
    'Ab initio molecular simulations with numeric atom-centered orbitals'
    Computer Physics Communications 180, 2175-2196 (2009)
    http://doi.org/10.1016/j.cpc.2009.06.022


  For the analytical stress tensor used in your run, please cite:

    Franz Knuth, Christian Carbogno, Viktor Atalla, Volker Blum, Matthias Scheffler
    'All-electron formalism for total energy strain derivatives and
    stress tensor components for numeric atom-centered orbitals'
    Computer Physics Communications 190, 33-50 (2015).
    http://doi.org/10.1016/j.cpc.2015.01.003


  The provided symmetry information was generated with SPGlib:

    Atsushi Togo, Yusuke Seto, Dimitar Pashov
    SPGlib 1.7.3 obtained from http://spglib.sourceforge.net
    Licence: New BSD license
    Copyright (C) 2008 Atsushi Togo


  The ELSI infrastructure was used in your run to solve the Kohn-Sham electronic structure.
  Please check out https://wordpress.elsi-interchange.org to learn more.
  If scalability is important for your project, please acknowledge ELSI by citing:

    V. W-z. Yu, F. Corsetti, A. Garcia, W. P. Huhn, M. Jacquelin, W. Jia,
    B. Lange, L. Lin, J. Lu, W. Mi, A. Seifitokaldani, A. Vazquez-Mayagoitia,
    C. Yang, H. Yang, and V. Blum
    'ELSI: A unified software interface for Kohn-Sham electronic structure solvers'
    Computer Physics Communications 222, 267-285 (2018).
    http://doi.org/10.1016/j.cpc.2017.09.007


  For the real-space grid partitioning and parallelization used in this calculation, please cite:

    Ville Havu, Volker Blum, Paula Havu, and Matthias Scheffler,
    'Efficient O(N) integration for all-electron electronic structure calculation'
    'using numerically tabulated basis functions'
    Journal of Computational Physics 228, 8367-8379 (2009).
    http://doi.org/10.1016/j.jcp.2009.08.008

  Of course, there are many other important community references, e.g., those cited in the
  above references. Our list is limited to references that describe implementations in the
  FHI-aims code. The reason is purely practical (length of this list) - please credit others as well.
------------------------------------------------------------
Warnings summary:

At least    2 warnings were raised during execution.
** WARNING:
 * A warning was issued further up regarding the speed of the s.c.f. convergence.
   One or more s.c.f. cycles took more than 50 s.c.f. iterations.
   It might be worth adjusting your convergence settings. For example,
   metals need a larger broadening and a smaller "charge_mix_param" value than semiconduct
ors.
** END OF WARNING

------------------------------------------------------------
          Leaving FHI-aims.
          Date     :  20260302, Time     :  114459.491

          Computational steps:
          | Number of self-consistency cycles          :          328
          | Number of SCF (re)initializations          :           11
          | Number of relaxation steps                 :           10

          Detailed time accounting                     :  max(cpu_time)    wall_clock(cpu1)
          | Total time                                  :      498.737 s         498.746 s
          | Preparation time                            :        0.119 s           0.119 s
          | Boundary condition initalization            :        0.492 s           0.480 s
          | Grid partitioning                           :        0.361 s           0.362 s
          | Preloading free-atom quantities on grid     :        8.274 s           8.274 s
          | Free-atom superposition energy              :        0.626 s           0.625 s
          | Total time for integrations                 :       88.004 s          88.012 s
          | Total time for solution of K.-S. equations  :        1.124 s           1.123 s
          | Total time for EV reorthonormalization      :        0.008 s           0.005 s
          | Total time for density & force components   :      353.948 s         353.961 s
          | Total time for mixing                       :        0.481 s           0.492 s
          | Total time for Hartree multipole update     :        0.154 s           0.139 s
          | Total time for Hartree multipole sum        :       33.695 s          33.698 s
          | Total time for total energy evaluation      :        0.029 s           0.029 s
          | Total time NSC force correction             :       11.174 s          11.172 s
          | Total time for scaled ZORA corrections      :        0.000 s           0.000 s

          Partial memory accounting:
          | Residual value for overall tracked memory usage across tasks:     0.000000 MB (should be 0.000000 MB)
          | Peak values for overall tracked memory usage:
          |   Minimum:       45.763 MB (on task 2 after allocating d_wave)
          |   Maximum:       47.157 MB (on task 0 after allocating d_wave)
          |   Average:       46.222 MB
          | Largest tracked array allocation:
          |   Minimum:       14.996 MB (density_matrix_con on task 2)
          |   Maximum:       15.820 MB (density_matrix_con on task 0)
          |   Average:       15.267 MB
          Note:  These values currently only include a subset of arrays which are explicitly tracked.
          The "true" memory usage will be greater.

          Have a nice day.
------------------------------------------------------------
