------------------------------------------------------------
          Invoking FHI-aims ...

          When using FHI-aims, please cite the following reference:

            Volker Blum, Ralf Gehrke, Felix Hanke, Paula Havu,
            Ville Havu, Xinguo Ren, Karsten Reuter, and Matthias Scheffler,
            'Ab Initio Molecular Simulations with Numeric Atom-Centered Orbitals',
            Computer Physics Communications 180, 2175-2196 (2009)

          In addition, many other developments in FHI-aims are likely important for
          your particular application. If so, please cite them. A partial list of references
          is written at the end of this file. Thank you for giving credit to the authors
          of these developments.

          For general information about FHI-aims please find us at

            https://fhi-aims.org

          Online tutorials can be found at

            https://fhi-aims-club.gitlab.io/tutorials/tutorials-overview/

          For any questions about FHI-aims, please visit our slack channel at

            https://fhi-aims.slack.com

          and our main development and support site at

            https://aims-git.rz-berlin.mpg.de .

          The latter site, in particular, has a wiki to collect information, as well
          as an issue tracker to log discussions, suggest improvements, and report issues
          or bugs. https://aims-git.rz-berlin.mpg.de is also the main development site
          of the project and all new and updated code versions can be obtained there.
          Please send an email to aims-coordinators@fhi-berlin.mpg.de and we will add
          you to these sites. They are for you and everyone is welcome there.

------------------------------------------------------------



  Date     :  20260130, Time     :  190147.225
  Time zero on CPU 1             :   0.674097000000000E+00  s.
  Internal wall clock time zero  :           539031707.225  s.

  FHI-aims created a unique identifier for this run for later identification
  aims_uuid : 789B4551-5073-4E38-A635-E7E11B722844

  Build configuration of the current instance of FHI-aims
  -------------------------------------------------------
  FHI-aims version      : 250822
  Commit number         : GITDIR-NOTFOUND
  CMake host system     : Linux-4.18.0-477.27.2.el8_8.x86_64
  CMake version         : 3.24.3
  OS Distribution       : AlmaLinux 8.8 (Sapphire Caracal)
  Built on              : Intel(R) Xeon(R) Silver 4108 CPU @ 1.80GHz
  Fortran compiler      : /gpfs/opt/sw/vsc4/VSC/x86_64/glibc-2.17/skylake/intel/oneapi/mpi/2021.5.0/bin/mpiifort (Intel) version 2021.5.0.20211109
  Fortran compiler flags: -O3 -xHost -fp-model precise
  C compiler            : /gpfs/opt/sw/vsc4/VSC/x86_64/glibc-2.17/skylake/intel/oneapi/mpi/2021.5.0/bin/mpiicc (Intel) version 2021.5.0.20211109
  C compiler flags      : -O3 -xHost -fp-model precise -std=gnu99
  C++ compiler          : /gpfs/opt/sw/vsc4/VSC/x86_64/glibc-2.17/skylake/intel/oneapi/mpi/2021.5.0/bin/mpiicpc (Intel) version 2021.5.0.20211109
  C++ compiler flags    : -O3 -xHost -fp-model precise
  HIP compiler          :
  HIP compiler flags    :
  HIP GPU arch          :
  ELPA2 kernel          : AVX2
  Using MPI
  Using ScaLAPACK
  Using LibXC
  Using i-PI
  Using RLSY
  Linking against: /gpfs/opt/sw/vsc4/VSC/x86_64/glibc-2.17/skylake/intel/oneapi/mkl/2022.0.1/lib/intel64/libmkl_intel_lp64.so
                   /gpfs/opt/sw/vsc4/VSC/x86_64/glibc-2.17/skylake/intel/oneapi/mkl/2022.0.1/lib/intel64/libmkl_sequential.so
                   /gpfs/opt/sw/vsc4/VSC/x86_64/glibc-2.17/skylake/intel/oneapi/mkl/2022.0.1/lib/intel64/libmkl_core.so
                   /gpfs/opt/sw/vsc4/VSC/x86_64/glibc-2.17/skylake/intel/oneapi/mkl/2022.0.1/lib/intel64/libmkl_blacs_intelmpi_lp64.so
                   /gpfs/opt/sw/vsc4/VSC/x86_64/glibc-2.17/skylake/intel/oneapi/mkl/2022.0.1/lib/intel64/libmkl_scalapack_lp64.so

  Using       16 parallel tasks.
  Task        0 on host n4907-042 reporting.
  Task        1 on host n4907-042 reporting.
  Task        2 on host n4907-043 reporting.
  Task        3 on host n4907-043 reporting.
  Task        4 on host n4907-044 reporting.
  Task        5 on host n4907-044 reporting.
  Task        6 on host n4907-045 reporting.
  Task        7 on host n4907-045 reporting.
  Task        8 on host n4907-046 reporting.
  Task        9 on host n4907-046 reporting.
  Task       10 on host n4907-047 reporting.
  Task       11 on host n4907-047 reporting.
  Task       12 on host n4907-048 reporting.
  Task       13 on host n4907-048 reporting.
  Task       14 on host n4907-049 reporting.
  Task       15 on host n4907-049 reporting.

  Obtaining array dimensions for all initial allocations:
  
  -----------------------------------------------------------------------
  Parsing control.in (first pass over file, find array dimensions only).
  The contents of control.in will be repeated verbatim below
  unless switched off by setting 'verbatim_writeout .false.' .
  in the first line of control.in .
  -----------------------------------------------------------------------
  
  #########################################################################################
  #
  #  Volker Blum, FHI 2008 : Test run input file control.in for simple H2O
  #
  #########################################################################################
  #
  #  Physical model
  #
    xc                 pbe
    spin               none
    relativistic      atomic_zora scalar
    charge             0.
  #
  #  SCF convergence
  #
    occupation_type    methfessel-paxton  0.1 1
    mixer              pulay
        n_max_pulay        10
        charge_mix_param   0.02
    sc_accuracy_rho    1E-2
    sc_accuracy_eev    1E-1
    sc_accuracy_etot   1E-2
    KS_method          parallel
    basis_threshold    1.e-5
    override_illconditioning .true.
  #
  #  Relaxation
  #
     relax_geometry   bfgs 3.0
  #   max_atomic_move 0.1
     external_pressure 150
     pressure_unit GPa
     relax_unit_cell full
     max_relaxation_steps 10
  #  output mulliken
  #
  ################################################################################
  #
  #  FHI-aims code project
  #  VB, Fritz-Haber Institut, 2009
  #
  #  Suggested "light" defaults for S atom (to be pasted into control.in file)
  #  Be sure to double-check any results obtained with these settings for post-processing,
  #  e.g., with the "tight" defaults and larger basis sets.
  #
  #  2020/09/08 Added f function to "light" after reinspection of Delta test outcomes.
  #             This was done for all of Al-Cl and is a tricky decision since it makes
  #             "light" calculations measurably more expensive for these elements.
  #             Nevertheless, outcomes for P, S, Cl (and to some extent, Si) appear
  #             to justify this choice.
  #
  ################################################################################
    species        S
  #     global species definitions
      nucleus             16
      mass                32.065
  #
      l_hartree           4
  #
      cut_pot             3.5          1.5  1.0
      basis_dep_cutoff    1e-4
  #
      radial_base         44 5.0
      radial_multiplier   1
      angular_grids       specified
        division   0.4665  110
        division   0.5810  194
        division   0.7139  302
  #      division   0.8274  434
  #      division   0.9105  590
  #      division   1.0975  770
  #      division   1.2028  974
  #      outer_grid  974
        outer_grid  302
  ################################################################################
  #
  #  Definition of "minimal" basis
  #
  ################################################################################
  #     valence basis states
      valence      3  s   2.
      valence      3  p   4.
  #     ion occupancy
      ion_occ      3  s   1.
      ion_occ      3  p   3.
  ################################################################################
  #
  #  Suggested additional basis functions. For production calculations,
  #  uncomment them one after another (the most important basis functions are
  #  listed first).
  #
  #  Constructed for dimers: 1.6 A, 1.9 A, 2.5 A, 3.25 A, 4.0 A
  #
  ################################################################################
  #  "First tier" - improvements: -652.81 meV to -45.53 meV
       ionic 3 d auto
       hydro 2 p 1.8
       hydro 4 f 7
       ionic 3 s auto
  #  "Second tier" - improvements: -30.20 meV to -1.74 meV
  #     hydro 4 d 6.2
  #     hydro 5 g 10.8
  #     hydro 4 p 4.9
  #     hydro 5 f 10
  #     hydro 1 s 0.8
  #  "Third tier" - improvements: -1.04 meV to -0.20 meV
  #     hydro 3 d 3.9
  #     hydro 3 d 2.7
  #     hydro 5 g 12
  #     hydro 4 p 10.4
  #     hydro 5 f 12.4
  #     hydro 2 s 1.9
  #  "Fourth tier" - improvements: -0.35 meV to -0.06 meV
  #     hydro 4 d 10.4
  #     hydro 4 p 7.2
  #     hydro 4 d 10
  #     hydro 5 g 19.2
  #     hydro 4 s 12
  
  ################################################################################
  #
  #  FHI-aims code project
  #  VB, Fritz-Haber Institut, 2009
  #
  #  Suggested "light" defaults for H atom (to be pasted into control.in file)
  #  Be sure to double-check any results obtained with these settings for post-processing,
  #  e.g., with the "tight" defaults and larger basis sets.
  #
  ################################################################################
    species        H
  #     global species definitions
      nucleus             1
      mass                1.00794
  #
      l_hartree           4
  #
      cut_pot             3.5  1.5  1.0
      basis_dep_cutoff    1e-4
  #
      radial_base         24 5.0
      radial_multiplier   1
      angular_grids       specified
        division   0.2421   50
        division   0.3822  110
        division   0.4799  194
        division   0.5341  302
  #      division   0.5626  434
  #      division   0.5922  590
  #      division   0.6542  770
  #      division   0.6868 1202
  #      outer_grid  770
        outer_grid  302
  ################################################################################
  #
  #  Definition of "minimal" basis
  #
  ################################################################################
  #     valence basis states
      valence      1  s   1.
  #     ion occupancy
      ion_occ      1  s   0.5
  ################################################################################
  #
  #  Suggested additional basis functions. For production calculations,
  #  uncomment them one after another (the most important basis functions are
  #  listed first).
  #
  #  Basis constructed for dimers: 0.5 A, 0.7 A, 1.0 A, 1.5 A, 2.5 A
  #
  ################################################################################
  #  "First tier" - improvements: -1014.90 meV to -62.69 meV
       hydro 2 s 2.1
       hydro 2 p 3.5
  #  "Second tier" - improvements: -12.89 meV to -1.83 meV
  #     hydro 1 s 0.85
  #     hydro 2 p 3.7
  #     hydro 2 s 1.2
  #     hydro 3 d 7
  #  "Third tier" - improvements: -0.25 meV to -0.12 meV
  #     hydro 4 f 11.2
  #     hydro 3 p 4.8
  #     hydro 4 d 9
  #     hydro 3 s 3.2
  
  k_grid 4 4 3
  
  -----------------------------------------------------------------------
  Completed first pass over input file control.in .
  -----------------------------------------------------------------------
  
  
  -----------------------------------------------------------------------
  Parsing geometry.in (first pass over file, find array dimensions only).
  The contents of geometry.in will be repeated verbatim below
  unless switched off by setting 'verbatim_writeout .false.' .
  in the first line of geometry.in .
  -----------------------------------------------------------------------
  
  lattice_vector       3.366027     0.000000     0.000000
  lattice_vector      -1.683014     2.915065     0.000000
  lattice_vector       0.000000     0.000000     4.330748
  atom      -1.27867065      2.68161757      2.88716543   S
  atom      -0.00000000      0.46689504      0.00000000   S
  atom       1.27867065      2.68161757      1.44358272   S
  atom       0.01373168      2.10276452      0.38817854   H
  atom      -0.14489972      1.87557481      1.83176126   H
  atom       0.13116804      1.85179084      3.27534398   H
  atom       0.14489972      1.87557481      2.49898689   H
  atom      -0.01373168      2.10276452      3.94256961   H
  atom      -0.13116804      1.85179084      1.05540417   H
  atom       2.45087244      0.52836486      0.72179136   H
  atom       1.68301361      1.85833537      2.16537407   H
  atom       0.91515478      0.52836486      3.60895679   H
  
  -----------------------------------------------------------------------
  Completed first pass over input file geometry.in .
  -----------------------------------------------------------------------
  

  Basic array size parameters:
  | Number of species                 :        2
  | Number of atoms                   :       12
  | Number of lattice vectors         :        3
  | Max. basis fn. angular momentum   :        3
  | Max. atomic/ionic basis occupied n:        3
  | Max. number of basis fn. types    :        3
  | Max. radial fns per species/type  :        5
  | Max. logarithmic grid size        :     1357
  | Max. radial integration grid size :       44
  | Max. angular integration grid size:      302
  | Max. angular grid division number :        8
  | Radial grid for Hartree potential :     1357
  | Number of spin channels           :        1

  Definition of standardized fundamental physical constants in this FHI-aims run:
  | Using the set of values used in FHI-aims up to 2024, which combines values from
  | different CODATA sets - see constants.f90.
  | Use the 'codata' keyword in control.in to change this selection.

  Memory overcommitment is allowed on your operating system.

------------------------------------------------------------
          Reading file control.in.
------------------------------------------------------------
  XC: Using PBE gradient-corrected functionals.
  Spin treatment: No spin polarisation.
  Scalar relativistic treatment of kinetic energy: on-site free-atom approximation to ZORA.
  Charge =   0.000000E+00: Neutral system requested explicitly.
  Occupation type: Methfessel-Paxton broadening, width =   0.100000E+00 eV, N =    1
  Using pulay charge density mixing.
  Pulay mixing - number of memorized iterations:   10
  Charge density mixing - mixing parameter:     0.0200
  Convergence accuracy of self-consistent charge density:  0.1000E-01
  Convergence accuracy of sum of eigenvalues:  0.1000E+00
  Convergence accuracy of total energy:  0.1000E-01
  Kohn-Sham electronic structure solved by the ELSI library.
  Threshold for basis singularities:  0.1000E-04
  override_illconditioning: Explicitly overriding any built-in checks for an ill-conditioned overlap matrix.
** WARNING:
  ***  If you use this flag, you should really know what you are doing.
** END OF WARNING
** WARNING:
  *** DO NOT keep this flag set by default in all your control.in files.
** END OF WARNING
  Geometry relaxation: Modified BFGS - TRM (trust radius method) for lattice optimization.
  Convergence accuracy for geometry relaxation: Maximum force <   0.300000E+01 eV/A.
  pressure_unit: Unit for the external pressure set to GPa.
  Maximum steps for geometry relaxation:       10
 
  Reading configuration options for species S                   .
  | Found nuclear charge :  16.0000
  | Found atomic mass :    32.0650000000000      amu
  | Found l_max for Hartree potential  :   4
  | Found cutoff potl. onset [A], width [A], scale factor :    3.50000    1.50000    1.00000
  | Threshold for basis-dependent cutoff potential is   0.100000E-03
  | Found data for basic radial integration grid :    44 points, outermost radius =    5.000 A
  | Found multiplier for basic radial grid :   1
  | Found angular grid specification: user-specified.
  | Specified grid contains     4 separate shells.
  | Check grid settings after all constraints further below.
  | Found free-atom valence shell :  3 s   2.000
  | Found free-atom valence shell :  3 p   4.000
  | Found free-ion valence shell :  3 s   1.000
  | Found free-ion valence shell :  3 p   3.000
  | Found ionic basis function :  3 d , default cutoff radius.
  | Found hydrogenic basis function :  2 p   1.800
  | Found hydrogenic basis function :  4 f   7.000
  | Found ionic basis function :  3 s , default cutoff radius.
 | Encountered keyword species, ending the description of species S                   .
  Species S                   : Missing cutoff potential type.
  Defaulting to exp(1/x)/(1-x)^2 type cutoff potential.
  Species S : No 'logarithmic' tag. Using default grid for free atom:
  | Default logarithmic grid data [bohr] : 0.1000E-03 0.1000E+03 0.1012E+01
  | Will include ionic basis functions of  2.0-fold positive S                    ion.
  Species S : On-site basis accuracy parameter (for Gram-Schmidt orthonormalisation) not specified.
  Using default value basis_acc =  0.1000000E-03.
  Species S                   : Using default innermost maximum threshold i_radial=  2 for radial functions.
  Species S                   : Default cutoff onset for free atom density etc. : 0.35000000E+01 AA.
  Species S                   : Basic radial grid will be enhanced according to radial_multiplier =   1, to contain    44 grid points.
 
  Reading configuration options for species H                   .
  | Found nuclear charge :   1.0000
  | Found atomic mass :    1.00794000000000      amu
  | Found l_max for Hartree potential  :   4
  | Found cutoff potl. onset [A], width [A], scale factor :    3.50000    1.50000    1.00000
  | Threshold for basis-dependent cutoff potential is   0.100000E-03
  | Found data for basic radial integration grid :    24 points, outermost radius =    5.000 A
  | Found multiplier for basic radial grid :   1
  | Found angular grid specification: user-specified.
  | Specified grid contains     5 separate shells.
  | Check grid settings after all constraints further below.
  | Found free-atom valence shell :  1 s   1.000
  | Found free-ion valence shell :  1 s   0.500
  | Found hydrogenic basis function :  2 s   2.100
  | Found hydrogenic basis function :  2 p   3.500
 | Encountered keyword k_grid, ending the description of species H                   .
  Species H                   : Missing cutoff potential type.
  Defaulting to exp(1/x)/(1-x)^2 type cutoff potential.
  Species H : No 'logarithmic' tag. Using default grid for free atom:
  | Default logarithmic grid data [bohr] : 0.1000E-03 0.1000E+03 0.1012E+01
  Species H : On-site basis accuracy parameter (for Gram-Schmidt orthonormalisation) not specified.
  Using default value basis_acc =  0.1000000E-03.
  Species H                   : Using default innermost maximum threshold i_radial=  2 for radial functions.
  Species H                   : Default cutoff onset for free atom density etc. : 0.35000000E+01 AA.
  Species H                   : Basic radial grid will be enhanced according to radial_multiplier =   1, to contain    24 grid points.
  Found k-point grid:         4         4         3
 
  Finished reading input file 'control.in'.
 
------------------------------------------------------------


------------------------------------------------------------
          Reading geometry description geometry.in.
------------------------------------------------------------
  | The smallest distance between any two atoms is         0.72744330 AA.
  | The first atom of this pair is atom number                      7 .
  | The second atom of this pair is atom number                     5 .
  | Wigner-Seitz cell of the first atom image           0     0     1 .
  | (The Wigner-Seitz cell of the second atom is 0 0 0  by definition.)

  Symmetry information by spglib:
  | Precision set to  0.1E-04
  | Number of Operations  : 6
  | Space group           : 151
  | International         : P3_112
  | Schoenflies           : D3^3
  Input structure read successfully.
  The structure contains       12 atoms,  and a total of         57.000 electrons.

  Input geometry:
  | Unit cell:
  |        3.36602700        0.00000000        0.00000000
  |       -1.68301400        2.91506500        0.00000000
  |        0.00000000        0.00000000        4.33074800
  | Atomic structure:
  |       Atom                x [A]            y [A]            z [A]
  |    1: Species S            -1.27867065        2.68161757        2.88716543
  |    2: Species S             0.00000000        0.46689504        0.00000000
  |    3: Species S             1.27867065        2.68161757        1.44358272
  |    4: Species H             0.01373168        2.10276452        0.38817854
  |    5: Species H            -0.14489972        1.87557481        1.83176126
  |    6: Species H             0.13116804        1.85179084        3.27534398
  |    7: Species H             0.14489972        1.87557481        2.49898689
  |    8: Species H            -0.01373168        2.10276452        3.94256961
  |    9: Species H            -0.13116804        1.85179084        1.05540417
  |   10: Species H             2.45087244        0.52836486        0.72179136
  |   11: Species H             1.68301361        1.85833537        2.16537407
  |   12: Species H             0.91515478        0.52836486        3.60895679

  Lattice parameters for 3D lattice (in Angstroms) :     3.366027    3.366027    4.330748
  Angle(s) between unit vectors (in degrees)       :    90.000000   90.000000  120.000006


  Quantities derived from the lattice vectors (in Angstrom^-1):
  | Reciprocal lattice vector 1:  1.866647  1.077710  0.000000
  | Reciprocal lattice vector 2: -0.000000  2.155419  0.000000
  | Reciprocal lattice vector 3:  0.000000  0.000000  1.450831
  | Unit cell volume                               :   0.424941E+02  Angstrom^3

  Fractional coordinates:
                         L1                L2                L3
       atom_frac         0.08008325        0.91991690        0.66666669  S
       atom_frac         0.08008315        0.16016625        0.00000000  S
       atom_frac         0.83983393        0.91991690        0.33333335  S
       atom_frac         0.36475158        0.72134396        0.08963314  H
       atom_frac         0.27865617        0.64340754        0.42296649  H
       atom_frac         0.35659258        0.63524856        0.75629983  H
       atom_frac         0.36475157        0.64340754        0.57703355  H
       atom_frac         0.35659259        0.72134396        0.91036690  H
       atom_frac         0.27865617        0.63524856        0.24370020  H
       atom_frac         0.81874688        0.18125320        0.16666667  H
       atom_frac         0.81874694        0.63749363        0.50000002  H
       atom_frac         0.36250644        0.18125320        0.83333336  H

  Slab Identifier: This seems to be a bulk system.
 
  Finished reading input file 'geometry.in'.
 

 
  Consistency checks for stacksize environment parameter are next.
 
  | Maximum stacksize for task 0: unlimited
  | Maximum stacksize for task 1: unlimited
  | Maximum stacksize for task 2: unlimited
  | Maximum stacksize for task 3: unlimited
  | Maximum stacksize for task 4: unlimited
  | Maximum stacksize for task 5: unlimited
  | Maximum stacksize for task 6: unlimited
  | Maximum stacksize for task 7: unlimited
  | Maximum stacksize for task 8: unlimited
  | Maximum stacksize for task 9: unlimited
  | Maximum stacksize for task 10: unlimited
  | Maximum stacksize for task 11: unlimited
  | Maximum stacksize for task 12: unlimited
  | Maximum stacksize for task 13: unlimited
  | Maximum stacksize for task 14: unlimited
  | Maximum stacksize for task 15: unlimited
  | Current stacksize for task 0: unlimited
  | Current stacksize for task 1: unlimited
  | Current stacksize for task 2: unlimited
  | Current stacksize for task 3: unlimited
  | Current stacksize for task 4: unlimited
  | Current stacksize for task 5: unlimited
  | Current stacksize for task 6: unlimited
  | Current stacksize for task 7: unlimited
  | Current stacksize for task 8: unlimited
  | Current stacksize for task 9: unlimited
  | Current stacksize for task 10: unlimited
  | Current stacksize for task 11: unlimited
  | Current stacksize for task 12: unlimited
  | Current stacksize for task 13: unlimited
  | Current stacksize for task 14: unlimited
  | Current stacksize for task 15: unlimited
 
  Consistency checks for the contents of control.in are next.
 
  MPI_IN_PLACE appears to work with this MPI implementation.
  | Keeping use_mpi_in_place .true. (see manual).
  Target number of points in a grid batch is not set. Defaulting to  100
  Method for grid partitioning is not set. Defaulting to parallel hash+maxmin partitioning.
  Batch size limit is not set. Defaulting to    200
  By default, will store active basis functions for each batch.
  If in need of memory, prune_basis_once .false. can be used to disable this option.
  communication_type for Hartree potential was not specified.
  Defaulting to calc_hartree .
  Pulay mixer: Number of initial linear mixing iterations not set.
  Defaulting to    0 iterations.
  Work space size for distributed Hartree potential not set.
  Defaulting to   0.200000E+03 MB.
  Algorithm-dependent basis array size parameters:
  | n_max_pulay                         :       10
  Maximum number of self-consistency iterations not provided.
  Presetting  1000 iterations.
  Presetting      1001 iterations before the initial mixing cycle
  is restarted anyway using the sc_init_iter criterion / keyword.
  Presetting a factor      1.000 between actual scf density residual
  and density convergence criterion sc_accuracy_rho below which sc_init_iter
  takes no effect.
  Default initial Hessian is Lindh matrix (thres = 15.00) plus  0.200000E+01 eV/A^2 times unity.
  No maximum energy tolerance for TRM/BFGS moves, defaulting to   0.150000E-02
  Maximum energy tolerance by which TRM/BFGS trajectory may increase over multiple steps:   0.300000E-02
  No harmonic length scale. Defaulting to   0.250000E-01 A.
  No trust radius initializer. Defaulting to   0.200000E+00 A.
  External pressure of  0.936E+00 eV/A**3 ( 0.150E+03 GPa) is applied to system.
  Unit cell relaxation: Unit cell will be relaxed fully.
  Unit cell relaxation: Analytical stress will be used.
  Analytical stress will be computed.
  Analytical stress calculation: Only the upper triangle is calculated.
                                 Final output is symmetrized.
  Analytical stress calculation: scf convergence accuracy of stress not set.
                                 Analytical stress self-consistency will not be checked explicitly.
                                 Be sure to set other criteria like sc_accuracy_rho tight enough.
  Forces evaluation will include force correction term due to incomplete self-consistency (default).
  Force calculation: scf convergence accuracy of forces not set.
  Defaulting to 'sc_accuracy_forces not_checked'.
  Handling of forces: Unphysical translation and rotation will be removed from forces.
  No accuracy limit for integral partition fn. given. Defaulting to  0.1000E-14.
  No threshold value for u(r) in integrations given. Defaulting to  0.1000E-05.
  No accuracy for occupation numbers given. Defaulting to  0.1000E-12.
  No threshold value for occupation numbers given. Defaulting to  0.0000E+00.
  No accuracy for fermi level given. Defaulting to  0.1000E-19.
  Maximum # of iterations to find E_F not set. Defaulting to  200.
 * You have    48 k-points in your system, but only    16 MPI-tasks available.
 * In this case using ScaLAPACK is not necessary / supported.
 * Switching to LAPACK (via ELSI) instead.
  Will not use alltoall communication since running on < 1024 CPUs.
  partition_type (choice of integration weights) for integrals was not specified.
  | Using a version of the partition function of Stratmann and coworkers ('stratmann_sparse').
  | At each grid point, the set of atoms used to build the partition table is smoothly restricted to
  | only those atoms whose free-atom density would be non-zero at that grid point.
  Partitioning for Hartree potential was not defined. Using partition_type for integrals.
  | Adjusted default value of keyword multip_moments_threshold to:       0.10000000E-11
  | This value may affect high angular momentum components of the Hartree potential in periodic systems.
  Using 2025 definition of centers list for evaluation of the Stratmann partition function.
  No q(lm)/r^(l+1) cutoff set for long-range Hartree potential.
  | Using default value of  0.100000E-09 .
  | Verify using the multipole_threshold keyword.
  Defaulting to new monopole extrapolation.
  Density update method: automatic selection selected.
  Using density matrix based charge density update.
  Using density matrix based charge density update.
  Using packed matrix style: index .
  Threshold of packed matrixes:  0.000000E+00
  Geometry relaxation: A file "geometry.in.next_step" is written out by default after each step.
  | This file contains the geometry of the current relaxation step as well as
  | the current Hessian matrix needed to restart the relaxation algorithm.
  | If you do not want part or all of this information, use the keywords
  | "write_restart_geometry" or "hessian_to_restart_geometry" to switch the output off.
  Defaulting to use time-reversal symmetry for k-point grid.
  Charge integration errors on the 3D integration grid will be compensated
  by explicit normalization and distribution of residual charges.
  Use the "compensate_multipole_errors" flag to change this behaviour.
  Set 'collect_eigenvectors' to be '.true.' for all serial calculations. This is mandatory.
  Set 'collect_eigenvectors' to be '.true.' for KS_method lapack_fast and serial.
  Found potential conflicts with setting 'use_local_index' for this calculation. Will not set it.
 
  Consistency checks for the contents of geometry.in are next.
 

  Range separation radius for Ewald summation (hartree_convergence_parameter):      2.50000000 bohr.
  Number of empty states per atom not set in control.in - providing a guess from actual geometry.
  | Total number of empty states used during s.c.f. cycle:       23
  If you use a very high smearing, use empty_states (per atom!) in control.in to increase this value.

  Structure-dependent array size parameters: 
  | Maximum number of distinct radial functions  :       12
  | Maximum number of basis functions            :      120
  | Number of Kohn-Sham states (occupied + empty):       52
------------------------------------------------------------

  Checking k-grid inconsistencies now:
  | k-point density for reciprocal lattice vector 1 is    1.86 nkpts / Angstrom^-1
  | k-point density for reciprocal lattice vector 2 is    1.86 nkpts / Angstrom^-1
  | k-point density for reciprocal lattice vector 3 is    2.07 nkpts / Angstrom^-1

  | Ratio of k-point densities for reciprocal lattice vectors 1 vs 2 is    1.00
  | Ratio of k-point densities for reciprocal lattice vectors 1 vs 3 is    0.90
  | Ratio of k-point densities for reciprocal lattice vectors 2 vs 3 is    0.90

  * The specified k_grid leads to a nearly homogenous k-grid density in non-vacuum directions,
  * and seems sensible.

  | Checks passed.
  After read_input_data [GB]:     85.98

  Performing system and environment tests:
  | Environment variable OMP_NUM_THREADS correctly set to 1.
  | Checking for ScaLAPACK...
  | Testing pdtran()...
  | All pdtran() tests passed.
  | Testing CPU compatibility for run-time vs. build-time.
  | Reading /proc/cpuinfo for CPU information ...
  | Built for  : Intel(R) Xeon(R) Silver 4108 CPU @ 1.80GHz
  *** WARNING: CPU mismatch detected for Node n4907-049 : Intel(R) Xeon(R) Platinum 8174 CPU @ 3.10GHz                                                  
  *** WARNING: CPU mismatch detected for Node n4907-046 : Intel(R) Xeon(R) Platinum 8174 CPU @ 3.10GHz                                                  
  *** WARNING: CPU mismatch detected for Node n4907-048 : Intel(R) Xeon(R) Platinum 8174 CPU @ 3.10GHz                                                  
  *** WARNING: CPU mismatch detected for Node n4907-044 : Intel(R) Xeon(R) Platinum 8174 CPU @ 3.10GHz                                                  
  *** WARNING: CPU mismatch detected for Node n4907-045 : Intel(R) Xeon(R) Platinum 8174 CPU @ 3.10GHz                                                  
  *** WARNING: CPU mismatch detected for Node n4907-047 : Intel(R) Xeon(R) Platinum 8174 CPU @ 3.10GHz                                                  
  *** WARNING: CPU mismatch detected for Node n4907-043 : Intel(R) Xeon(R) Platinum 8174 CPU @ 3.10GHz                                                  
  *** WARNING: CPU mismatch detected for Node n4907-042 : Intel(R) Xeon(R) Platinum 8174 CPU @ 3.10GHz                                                  
** WARNING:
  | WARNING: This FHI-aims executable was built on a different
  CPU type than the CPUs used in this run.

  | Running on different hardware than that on which a code was compiled
  | can produce incorrect results (wrong numbers) due to architecture-specific
  | optimizations made by the compiler. Those wrong numbers may occur only spuriously.
  | They are therefore very difficult to rule out even by tests ahead of time.

** END OF WARNING
  | Running on : Intel(R) Xeon(R) Platinum 8174 CPU @ 3.10GHz
  | Runtime CPU compatibility verified.
  
  After prepare_system [GB]:     86.00

------------------------------------------------------------
          Preparing all fixed parts of the calculation.
------------------------------------------------------------
  Determining machine precision:
    2.225073858507201E-308
  Setting up grids for atomic and cluster calculations.

  Creating wave function, potential, and density for free atoms.
  Runtime choices for atomic solver:
  | atomic solver xc        : PBE
  | compute density gradient: 1
  | compute kinetic density : F

  Species: S

  List of occupied orbitals and eigenvalues:
    n    l              occ      energy [Ha]    energy [eV]
    1    0           2.0000       -88.678258     -2413.0582
    2    0           2.0000        -7.779365      -211.6873
    3    0           2.0000        -0.631865       -17.1939
    2    1           6.0000        -5.749610      -156.4549
    3    1           4.0000        -0.255301        -6.9471


  Species: H

  List of occupied orbitals and eigenvalues:
    n    l              occ      energy [Ha]    energy [eV]
    1    0           1.0000        -0.237593        -6.4652


  Adding cutoff potential to free-atom effective potential.
  Creating fixed part of basis set: Ionic, confined, hydrogenic.
 
  S                    ion:

  List of free ionic orbitals and eigenvalues:
    n    l      energy [Ha]    energy [eV]
    1    0       -89.703778     -2440.9640
    2    0        -8.775428      -238.7916
    3    0        -1.470343       -40.0101
    2    1        -6.747660      -183.6132
    3    1        -1.048627       -28.5346


  List of ionic basis orbitals and eigenvalues:
    n    l      energy [Ha]    energy [eV]    outer radius [A]
    3    2        -0.495221       -13.4756       4.539062
    3    0        -1.470325       -40.0096       3.642502

 
  S                    hydrogenic:
 
  List of hydrogenic basis orbitals: 
    n    l      effective z      eigenvalue [eV]  inner max. [A]     outer max. [A]     outer radius [A]   
    2    1         1.800000       -10.9749           1.168531           1.168531           4.594893
    4    3         7.000000       -41.6658           1.212182           1.212182           4.539062
 
 
  H                    hydrogenic:
 
  List of hydrogenic basis orbitals: 
    n    l      effective z      eigenvalue [eV]  inner max. [A]     outer max. [A]     outer radius [A]   
    2    0         2.100000       -14.9728           0.193243           1.317208           4.583499
    2    1         3.500000       -41.6669           0.602369           0.602369           3.723403
 
  Creating atomic-like basis functions for current effective potential.

  Species S                   :

  List of atomic basis orbitals and eigenvalues:
    n    l      energy [Ha]    energy [eV]    outer radius [A]
    1    0       -88.678258     -2413.0582       0.682391
    2    0        -7.779365      -211.6873       2.289014
    3    0        -0.631865       -17.1939       4.483910
    2    1        -5.749610      -156.4549       2.555240
    3    1        -0.255301        -6.9471       4.539062


  Species H                   :

  List of atomic basis orbitals and eigenvalues:
    n    l      energy [Ha]    energy [eV]    outer radius [A]
    1    0        -0.237593        -6.4652       4.527807

  Assembling full basis from fixed parts.
  | Species S :   atomic orbital   1 s accepted.
  | Species S :   atomic orbital   2 s accepted.
  | Species S :    ionic orbital   3 s accepted.
  | Species S :   atomic orbital   3 s accepted.
  | Species S :   atomic orbital   2 p accepted.
  | Species S :   atomic orbital   3 p accepted.
  | Species S :    hydro orbital   2 p accepted.
  | Species S :    ionic orbital   3 d accepted.
  | Species S :    hydro orbital   4 f accepted.
  | Species H :   atomic orbital   1 s accepted.
  | Species H :    hydro orbital   2 s accepted.
  | Species H :    hydro orbital   2 p accepted.
 
  Basis size parameters after reduction:
  | Total number of radial functions:       12
  | Total number of basis functions :      120
 
  Per-task memory consumption for arrays in subroutine allocate_ext:
  |           4.172608MB.
  Testing on-site integration grid accuracy.
  |  Species  Function  <phi|h_atom|phi> (log., in eV)  <phi|h_atom|phi> (rad., in eV)
           1        1              -2413.0581659109              -2413.0570554886
           1        2               -211.6872814127               -211.6872738937
           1        3                -16.9208611991                -16.9208255642
           1        4                  7.5845503345                  7.5614252779
           1        5               -156.4548540501               -156.4548540107
           1        6                 -6.9485729304                 -6.9508389945
           1        7                  7.5803076288                  7.5258504832 ***
           1        8                  6.1173006980                  6.1127563631
           1        9                 24.7512183535                 24.7503558869
           2       10                 -6.4664147733                 -6.4652229287
           2       11                 13.7099062243                 13.7158503352
           2       12                 25.2661739479                 25.2663166526
 * Note: Onsite integrals marked "***" above are less accurate than
 * onsite_accuracy_threshold =    0.03000 eV. Usually, this is harmless.
 * When in doubt, tighten the "radial" and/or "radial_multiplier" flags to check.

  Preparing densities etc. for the partition functions (integrals / Hartree potential).

  Preparations completed.
  max(cpu_time)          :      0.192 s.
  Wall clock time (cpu1) :      0.193 s.
------------------------------------------------------------
  After prepare_scf [GB]:     85.96

  Initializing index lists of integration centers etc. from given atomic structure:
  Mapping all atomic coordinates to central unit cell.

  Initializing the k-points
  Using symmetry for reducing the k-points
  | k-points reduced from:       48 to       26
  | Number of k-points                             :        26
  The eigenvectors in the calculations are COMPLEX.
  | K-points in task   0:         1
  | K-points in task   1:         2
  | K-points in task   2:         2
  | K-points in task   3:         2
  | K-points in task   4:         2
  | K-points in task   5:         2
  | K-points in task   6:         2
  | K-points in task   7:         2
  | K-points in task   8:         2
  | K-points in task   9:         2
  | K-points in task  10:         2
  | K-points in task  11:         1
  | K-points in task  12:         1
  | K-points in task  13:         1
  | K-points in task  14:         1
  | K-points in task  15:         1
  | Number of basis functions in the Hamiltonian integrals       :      4190
  | Number of basis functions in a single unit cell              :       120
  | Number of centers in hartree potential                       :      3079
  | Number of centers in hartree multipole                       :      2212
  | Number of centers in electron density summation              :      1595
  | Number of centers in basis integrals                         :      1693
  | Number of centers in integrals                               :       545
  | Number of centers in hamiltonian                             :      1596
  | Number of centers in partition table from touching 0-cell    :       545
  | Number of centers in partition table total                   :      1693
  | Consuming         77 KiB for k_phase.
  | Number of super-cells (origin) [n_cells]                     :        1089
  | Number of super-cells (after PM_index) [n_cells]             :         190
  | Number of super-cells in hamiltonian [n_cells_in_hamiltonian]:         190
  | Size of matrix packed + index [n_hamiltonian_matrix_size]    :      456151
  After initialize_bc_dependent_lists [GB]:     85.92

------------------------------------------------------------
          Begin self-consistency loop: Initialization.

          Date     :  20260130, Time     :  190147.705
------------------------------------------------------------

  Initializing relaxation algorithms.
  Finished initialization of distributed Hessian storage.
  | Global dimension:        45
  | BLACS block size:         3
  | Number of workers:       15

  Available memory per node after initialize_hartree_non_periodic_ewald [GB]:     85.91
  | Estimated reciprocal-space cutoff momentum G_max:         3.81257049 bohr^-1 .
  | Reciprocal lattice points for long-range Hartree potential:     272
  Available memory per node after initialize_recip_hartree_potential [GB]:     85.91
  Available memory per node after initialize_scalapack [GB]:     85.91
  Available memory per node after aims_elsi_init_scf [GB]:     85.91
  Available memory per node after initialize_fixed_grids [GB]:     85.91
  Partitioning the integration grid into batches with parallel hashing+maxmin method.
  | Number of batches:      947
  | Maximal batch size:     113
  | Minimal batch size:      49
  | Average batch size:      73.077
  | Standard deviation of batch sizes:      17.090

  Integration load balanced across    16 MPI tasks.
  Work distribution over tasks is as follows:
  Task     0 has       4364 integration points.
  Task     1 has       4300 integration points.
  Task     2 has       4339 integration points.
  Task     3 has       4338 integration points.
  Task     4 has       4294 integration points.
  Task     5 has       4297 integration points.
  Task     6 has       4287 integration points.
  Task     7 has       4294 integration points.
  Task     8 has       4354 integration points.
  Task     9 has       4331 integration points.
  Task    10 has       4331 integration points.
  Task    11 has       4364 integration points.
  Task    12 has       4370 integration points.
  Task    13 has       4347 integration points.
  Task    14 has       4299 integration points.
  Task    15 has       4295 integration points.
  Available memory per node after partition_grid [GB]:     85.90
  Initializing partition tables, free-atom densities, potentials, etc. across the integration grid (initialize_grid_storage).
  | initialize_grid_storage: Actual outermost partition radius vs. multipole_radius_free
  | (-- VB: in principle, multipole_radius_free should be larger, hence this output)
  | Species        1: Confinement radius =              4.999999999999999 AA, multipole_radius_free =              5.005414751018925 AA.
  | Species        1: outer_partition_radius set to              5.005414751018925 AA .
  | Species        2: Confinement radius =              4.999999999999999 AA, multipole_radius_free =              5.054417573612229 AA.
  | Species        2: outer_partition_radius set to              5.054417573612229 AA .
  | The sparse table of interatomic distances needs      12790.78 kbyte instead of     22929.99 kbyte of memory.
  | Net number of integration points:    69204
  | of which are non-zero points    :    49466
  | Numerical average free-atom electrostatic potential    :    -23.78765518 eV
  Available memory per node after initialize_grid_storage_p1 [GB]:     85.71
  Renormalizing the initial density to the exact electron count on the 3D integration grid.
  | Initial density: Formal number of electrons (from input files) :      57.0000000000
  | Integrated number of electrons on 3D grid     :      57.0079400459
  | Charge integration error                      :       0.0079400459
  | Normalization factor for density and gradient :       0.9998607204
  Renormalizing the free-atom superposition density to the exact electron count on the 3D integration grid.
  | Formal number of electrons (from input files) :      57.0000000000
  | Integrated number of electrons on 3D grid     :      57.0079400459
  | Charge integration error                      :       0.0079400459
  | Normalization factor for density and gradient :       0.9998607204
  Obtaining max. number of non-zero basis functions in each batch (get_n_compute_maxes).
  | Maximal number of non-zero basis functions:     1210 in task     0
  | Maximal number of non-zero basis functions:     1226 in task     1
  | Maximal number of non-zero basis functions:     1242 in task     2
  | Maximal number of non-zero basis functions:     1225 in task     3
  | Maximal number of non-zero basis functions:     1251 in task     4
  | Maximal number of non-zero basis functions:     1237 in task     5
  | Maximal number of non-zero basis functions:     1230 in task     6
  | Maximal number of non-zero basis functions:     1259 in task     7
  | Maximal number of non-zero basis functions:     1251 in task     8
  | Maximal number of non-zero basis functions:     1218 in task     9
  | Maximal number of non-zero basis functions:     1229 in task    10
  | Maximal number of non-zero basis functions:     1240 in task    11
  | Maximal number of non-zero basis functions:     1250 in task    12
  | Maximal number of non-zero basis functions:     1233 in task    13
  | Maximal number of non-zero basis functions:     1225 in task    14
  | Maximal number of non-zero basis functions:     1215 in task    15
  Available memory per node after get_n_compute_maxes_p1 [GB]:     85.71
  Allocating        0.095 MB for KS_eigenvector_complex
  Available memory per node after allocate_matrices [GB]:     85.71
  Available memory per node after init_comm_sparse_local_matrix_scalapack [GB]:     85.71
  Integrating Hamiltonian matrix: batch-based integration.
  Time summed over all CPUs for integration: real work       19.093 s, elapsed       19.835 s
  Available memory per node after integrate hamiltonian matrix [GB]:     85.43
  Integrating overlap matrix.
  Time summed over all CPUs for integration: real work       14.420 s, elapsed       15.026 s
  Available memory per node after integrate ovlp matrix [GB]:     85.43
  Available memory per node after ASI_callbacks invoke [GB]:     85.43
  Available memory per node after save_overlap_scalapack [GB]:     85.43

  Updating Kohn-Sham eigenvalues and eigenvectors using ELSI and the (modified) LAPACK eigensolver.
  Singularity check in k-point 16, task 0 (analysis for other k-points/tasks may follow below):
  Overlap matrix is not singular
  | Lowest and highest eigenvalues :  0.1141E-03,  0.1605E+02
  Finished singularity check of overlap matrix
  | Time :     0.002 s
  Starting LAPACK eigensolver
  Finished Cholesky decomposition
  | Time :     0.000 s
  Finished transformation to standard eigenproblem
  | Time :     0.001 s
  Finished solving standard eigenproblem
  | Time :     0.003 s
  Finished back-transformation of eigenvectors
  | Time :     0.000 s

  Obtaining occupation numbers and electronic chemical potential using ELSI.
  | Note that, for insulating systems, the printed 'chemical potential' value is not uniquely defined.
  | It can be anywhere in the energy gap, as long as it correctly separates occupied and unoccupied states.
  | In systems with a gap, the physically relevant chemical potential is the VBM or HOMO.

  | Chemical potential (Fermi level):    -6.88641134 eV
  Available memory per node after advance_KS_solution [GB]:     85.43
  Writing Kohn-Sham eigenvalues.
  K-point:       1 at    0.000000    0.000000    0.000000 (in units of recip. lattice)

  State    Occupation    Eigenvalue [Ha]    Eigenvalue [eV]
      1       2.00000         -88.806920        -2416.55924
      2       2.00000         -88.806920        -2416.55924
      3       2.00000         -88.806920        -2416.55924
      4       2.00000          -7.927863         -215.72811
      5       2.00000          -7.926405         -215.68845
      6       2.00000          -7.926404         -215.68842
      7       2.00000          -5.909818         -160.81433
      8       2.00000          -5.909818         -160.81433
      9       2.00000          -5.904982         -160.68273
     10       2.00000          -5.890774         -160.29612
     11       2.00000          -5.889984         -160.27462
     12       2.00000          -5.889983         -160.27459
     13       2.00000          -5.887501         -160.20706
     14       2.00000          -5.887499         -160.20699
     15       2.00000          -5.887129         -160.19694
     16       2.00000          -1.300631          -35.39198
     17       2.00000          -1.096454          -29.83602
     18       2.00000          -1.096441          -29.83569
     19       2.00000          -0.925304          -25.17880
     20       2.00000          -0.721281          -19.62705
     21       2.00000          -0.721270          -19.62674
     22       2.00000          -0.609357          -16.58144
     23       2.00000          -0.609352          -16.58132
     24       2.00000          -0.533624          -14.52064
     25       2.00000          -0.520286          -14.15770
     26       2.00000          -0.520283          -14.15762
     27       2.00000          -0.378158          -10.29020
     28       2.03443          -0.259432           -7.05951
     29       2.03463          -0.259424           -7.05928
     30      -0.00000          -0.193002           -5.25184
     31      -0.00000          -0.185727           -5.05388
     32      -0.00000          -0.184605           -5.02336
     33       0.00000          -0.074341           -2.02291
     34       0.00000          -0.074330           -2.02261
     35       0.00000          -0.031221           -0.84955
     36       0.00000          -0.031182           -0.84850
     37       0.00000           0.015609            0.42474
     38       0.00000           0.015635            0.42545
     39       0.00000           0.213666            5.81415
     40       0.00000           0.213673            5.81435
     41       0.00000           0.413234           11.24467
     42       0.00000           0.417127           11.35060
     43       0.00000           0.417168           11.35172
     44       0.00000           0.477878           13.00372
     45       0.00000           0.477888           13.00399
     46       0.00000           0.505737           13.76180
     47       0.00000           0.693804           18.87938
     48       0.00000           0.709967           19.31917
     49       0.00000           0.771649           20.99765
     50       0.00000           0.785077           21.36304
     51       0.00000           0.785350           21.37047
     52       0.00000           0.827618           22.52064

  What follows are estimated values for band gap, HOMO, LUMO, etc.
  | They are estimated on a discrete k-point grid and not necessarily exact.
  | For converged numbers, create a DOS and/or band structure plot on a denser k-grid.

  Highest occupied state (VBM) at     -7.05927916 eV (relative to internal zero)
  | Occupation number:      2.03463105
  | K-point:       1 at    0.000000    0.000000    0.000000 (in units of recip. lattice)

  Lowest unoccupied state (CBM) at    -6.79916387 eV (relative to internal zero)
  | Occupation number:     -0.01267279
  | K-point:      20 at    0.500000    0.250000    0.666667 (in units of recip. lattice)

  The gap value is above 0.2 eV. Unless you are using a very sparse k-point grid,
  this system is most likely an insulator or a semiconductor.
  ESTIMATED overall HOMO-LUMO gap:      0.26011529 eV between HOMO at k-point 1 and LUMO at k-point 20
  | This appears to be an indirect band gap.
  | Smallest direct gap :      1.58153732 eV for k_point 13 at    0.250000    0.500000    0.333333 (in units of recip. lattice)
  Calculating total energy contributions from superposition of free atom densities.

  Total energy components:
  | Sum of eigenvalues            :        -705.54510478 Ha      -19198.85912814 eV
  | XC energy correction          :         -81.65396729 Ha       -2221.91749978 eV
  | XC potential correction       :         105.66248946 Ha        2875.22262789 eV
  | Free-atom electrostatic energy:        -521.49440034 Ha      -14190.58464214 eV
  | Hartree energy correction     :           0.00000000 Ha           0.00000000 eV
  | Entropy correction            :          -0.00004073 Ha          -0.00110825 eV
  | ---------------------------
  | Total energy                  :       -1203.03098294 Ha      -32736.13864217 eV
  | Total energy, T -> 0          :       -1203.03103724 Ha      -32736.14011984 eV  <-- do not rely on this value for anything but (periodic) metals
  | Electronic free energy        :       -1203.03106439 Ha      -32736.14085868 eV

  Derived energy quantities:
  | Kinetic energy                :        1214.48103996 Ha       33047.71054621 eV
  | Electrostatic energy          :       -2335.85805561 Ha      -63561.93168859 eV
  | Energy correction for multipole
  | error in Hartree potential    :           0.00000000 Ha           0.00000000 eV
  | Sum of eigenvalues per atom                           :       -1599.90492734 eV
  | Total energy (T->0) per atom                          :       -2728.01167665 eV  <-- do not rely on this value for anything but (periodic) metals
  | Electronic free energy per atom                       :       -2728.01173822 eV
  Initialize hartree_potential_storage
  Max. number of atoms included in rho_multipole:           12

  End scf initialization - timings             :  max(cpu_time)    wall_clock(cpu1)
  | Time for scf. initialization                :        5.587 s           5.614 s
  | Boundary condition initialization           :        0.093 s           0.093 s
  | Relaxation initialization                   :        0.044 s           0.044 s
  | Integration                                 :        2.188 s           2.199 s
  | Solution of K.-S. eqns.                     :        0.031 s           0.031 s
  | Grid partitioning                           :        0.093 s           0.093 s
  | Preloading free-atom quantities on grid     :        3.038 s           3.052 s
  | Free-atom superposition energy              :        0.192 s           0.192 s
  | Total energy evaluation                     :        0.000 s           0.001 s

  Partial memory accounting:
  | Current value for overall tracked memory usage:
  |   Minimum:        8.910 MB (on task 15)
  |   Maximum:        9.006 MB (on task  1)
  |   Average:        8.970 MB
  | Peak value for overall tracked memory usage:
  |   Minimum:       23.238 MB (on task  0 after allocating wave)
  |   Maximum:       24.384 MB (on task  7 after allocating wave)
  |   Average:       23.805 MB
  | Largest tracked array allocation so far:
  |   Minimum:       11.170 MB (hamiltonian_shell on task  0)
  |   Maximum:       12.093 MB (hamiltonian_shell on task  7)
  |   Average:       11.616 MB
  Note:  These values currently only include a subset of arrays which are explicitly tracked.
  The "true" memory usage will be greater.
------------------------------------------------------------
  Available memory after initialize_scf [GB]:     85.36
  Available memory after allocating mixing [GB]:     85.36
  Evaluating new KS density using the density matrix
  Evaluating density matrix
  Time summed over all CPUs for getting density from density matrix: real work       29.549 s, elapsed       30.873 s
  Integration grid: deviation in total charge (<rho> - N_e) =  -9.237056E-14

  Time for density update prior                :  max(cpu_time)    wall_clock(cpu1)
  | self-consistency iterative process          :        1.931 s           1.940 s
  Available memory before start of SCF loop [GB]:     85.12

------------------------------------------------------------
          Begin self-consistency iteration #    1

  Date     :  20260130, Time     :  190155.259
------------------------------------------------------------
  Pulay mixing of updated and previous charge densities.
  Available memory per node after mixing [GB]:     85.12
  Renormalizing the density to the exact electron count on the 3D integration grid.
  | Formal number of electrons (from input files) :      57.0000000000
  | Integrated number of electrons on 3D grid     :      57.0000000000
  | Charge integration error                      :       0.0000000000
  | Normalization factor for density and gradient :       1.0000000000

  Evaluating partitioned Hartree potential by multipole expansion.
  | Original multipole sum: apparent total charge =   0.190210E-14
  | Sum of charges compensated after spline to logarithmic grids =   0.454783E-05
  | Analytical far-field extrapolation by fixed multipoles:
  | Hartree multipole sum: apparent total charge =   0.190200E-14
  Summing up the Hartree potential.
  Time summed over all CPUs for potential: real work        0.226 s, elapsed        0.241 s
  | RMS charge density error from multipole expansion :   0.852733E-03
  | Average real-space part of the electrostatic potential :      0.03136343 eV

  Integrating Hamiltonian matrix: batch-based integration.
  Time summed over all CPUs for integration: real work       20.634 s, elapsed       21.327 s

  Updating Kohn-Sham eigenvalues and eigenvectors using ELSI and the (modified) LAPACK eigensolver.
  Starting LAPACK eigensolver
  Finished Cholesky decomposition
  | Time :     0.001 s
  Finished transformation to standard eigenproblem
  | Time :     0.001 s
  Finished solving standard eigenproblem
  | Time :     0.002 s
  Finished back-transformation of eigenvectors
  | Time :     0.000 s

  Obtaining occupation numbers and electronic chemical potential using ELSI.
  | Note that, for insulating systems, the printed 'chemical potential' value is not uniquely defined.
  | It can be anywhere in the energy gap, as long as it correctly separates occupied and unoccupied states.
  | In systems with a gap, the physically relevant chemical potential is the VBM or HOMO.

  | Chemical potential (Fermi level):    -6.86536778 eV
  Writing Kohn-Sham eigenvalues.
  K-point:       1 at    0.000000    0.000000    0.000000 (in units of recip. lattice)

  State    Occupation    Eigenvalue [Ha]    Eigenvalue [eV]
      1       2.00000         -88.805416        -2416.51832
      2       2.00000         -88.805416        -2416.51832
      3       2.00000         -88.805415        -2416.51830
      4       2.00000          -7.926604         -215.69387
      5       2.00000          -7.925147         -215.65423
      6       2.00000          -7.925145         -215.65417
      7       2.00000          -5.908379         -160.77518
      8       2.00000          -5.908379         -160.77516
      9       2.00000          -5.903544         -160.64360
     10       2.00000          -5.889542         -160.26259
     11       2.00000          -5.888756         -160.24122
     12       2.00000          -5.888756         -160.24119
     13       2.00000          -5.886339         -160.17544
     14       2.00000          -5.886336         -160.17534
     15       2.00000          -5.885972         -160.16544
     16       2.00000          -1.299353          -35.35718
     17       2.00000          -1.094936          -29.79472
     18       2.00000          -1.094925          -29.79441
     19       2.00000          -0.923132          -25.11970
     20       2.00000          -0.719511          -19.57888
     21       2.00000          -0.719500          -19.57859
     22       2.00000          -0.608729          -16.56435
     23       2.00000          -0.608722          -16.56416
     24       2.00000          -0.533017          -14.50412
     25       2.00000          -0.519221          -14.12871
     26       2.00000          -0.519218          -14.12863
     27       2.00000          -0.377722          -10.27834
     28       2.02930          -0.258892           -7.04480
     29       2.02949          -0.258883           -7.04456
     30      -0.00000          -0.192744           -5.24484
     31      -0.00000          -0.184888           -5.03105
     32      -0.00000          -0.184188           -5.01201
     33       0.00000          -0.074080           -2.01582
     34       0.00000          -0.074068           -2.01549
     35       0.00000          -0.030880           -0.84029
     36       0.00000          -0.030841           -0.83922
     37       0.00000           0.015774            0.42922
     38       0.00000           0.015800            0.42993
     39       0.00000           0.215426            5.86204
     40       0.00000           0.215434            5.86225
     41       0.00000           0.413854           11.26155
     42       0.00000           0.417756           11.36771
     43       0.00000           0.417799           11.36889
     44       0.00000           0.478740           13.02718
     45       0.00000           0.478750           13.02745
     46       0.00000           0.505905           13.76636
     47       0.00000           0.694696           18.90364
     48       0.00000           0.710395           19.33083
     49       0.00000           0.772532           21.02166
     50       0.00000           0.785851           21.38409
     51       0.00000           0.786124           21.39153
     52       0.00000           0.828581           22.54683

  What follows are estimated values for band gap, HOMO, LUMO, etc.
  | They are estimated on a discrete k-point grid and not necessarily exact.
  | For converged numbers, create a DOS and/or band structure plot on a denser k-grid.

  Highest occupied state (VBM) at     -7.04455867 eV (relative to internal zero)
  | Occupation number:      2.02948905
  | K-point:       1 at    0.000000    0.000000    0.000000 (in units of recip. lattice)

  Lowest unoccupied state (CBM) at    -6.77854673 eV (relative to internal zero)
  | Occupation number:     -0.01099780
  | K-point:      20 at    0.500000    0.250000    0.666667 (in units of recip. lattice)

  The gap value is above 0.2 eV. Unless you are using a very sparse k-point grid,
  this system is most likely an insulator or a semiconductor.
  ESTIMATED overall HOMO-LUMO gap:      0.26601194 eV between HOMO at k-point 1 and LUMO at k-point 20
  | This appears to be an indirect band gap.
  | Smallest direct gap :      1.58899774 eV for k_point 13 at    0.250000    0.500000    0.333333 (in units of recip. lattice)

  Total energy components:
  | Sum of eigenvalues            :        -705.47583420 Ha      -19196.97417988 eV
  | XC energy correction          :         -81.66274116 Ha       -2222.15624904 eV
  | XC potential correction       :         105.67360531 Ha        2875.52510549 eV
  | Free-atom electrostatic energy:        -521.49440034 Ha      -14190.58464214 eV
  | Hartree energy correction     :          -0.06541259 Ha          -1.77996709 eV
  | Entropy correction            :          -0.00004174 Ha          -0.00113591 eV
  | ---------------------------
  | Total energy                  :       -1203.02478298 Ha      -32735.96993267 eV
  | Total energy, T -> 0          :       -1203.02483864 Ha      -32735.97144722 eV  <-- do not rely on this value for anything but (periodic) metals
  | Electronic free energy        :       -1203.02486647 Ha      -32735.97220450 eV

  Derived energy quantities:
  | Kinetic energy                :        1214.56113350 Ha       33049.89000251 eV
  | Electrostatic energy          :       -2335.92317532 Ha      -63563.70368614 eV
  | Energy correction for multipole
  | error in Hartree potential    :           0.00073750 Ha           0.02006838 eV
  | Sum of eigenvalues per atom                           :       -1599.74784832 eV
  | Total energy (T->0) per atom                          :       -2727.99762060 eV  <-- do not rely on this value for anything but (periodic) metals
  | Electronic free energy per atom                       :       -2727.99768371 eV
  Evaluating new KS density using the density matrix
  Evaluating density matrix
  Time summed over all CPUs for getting density from density matrix: real work       31.205 s, elapsed       32.840 s
  Integration grid: deviation in total charge (<rho> - N_e) =   2.131628E-14

  Self-consistency convergence accuracy:
  | Change of charge density      :  0.4213E+00
  | Change of unmixed KS density  :  0.5007E+02
  | Change of sum of eigenvalues  :  0.1885E+01 eV
  | Change of total energy        :  0.1687E+00 eV


------------------------------------------------------------
  End self-consistency iteration #     1       :  max(cpu_time)    wall_clock(cpu1)
  | Time for this iteration                     :        3.662 s           3.679 s
  | Charge density update                       :        2.053 s           2.062 s
  | Density mixing                              :        0.001 s           0.001 s
  | Hartree multipole update                    :        0.002 s           0.002 s
  | Hartree multipole summation                 :        0.244 s           0.245 s
  | Integration                                 :        1.336 s           1.342 s
  | Solution of K.-S. eqns.                     :        0.025 s           0.026 s
  | Total energy evaluation                     :        0.000 s           0.001 s

  Partial memory accounting:
  | Current value for overall tracked memory usage:
  |   Minimum:       11.826 MB (on task 15)
  |   Maximum:       11.962 MB (on task  8)
  |   Average:       11.907 MB
  | Peak value for overall tracked memory usage:
  |   Minimum:       29.303 MB (on task  0 after allocating gradient_basis_wave)
  |   Maximum:       30.527 MB (on task  7 after allocating gradient_basis_wave)
  |   Average:       29.905 MB
  | Largest tracked array allocation so far:
  |   Minimum:       11.170 MB (hamiltonian_shell on task  0)
  |   Maximum:       12.093 MB (hamiltonian_shell on task  7)
  |   Average:       11.616 MB
  Note:  These values currently only include a subset of arrays which are explicitly tracked.
  The "true" memory usage will be greater.
------------------------------------------------------------

------------------------------------------------------------
          Begin self-consistency iteration #    2

  Date     :  20260130, Time     :  190158.938
------------------------------------------------------------
  Pulay mixing of updated and previous charge densities.
  Available memory per node after mixing [GB]:     84.53
  Renormalizing the density to the exact electron count on the 3D integration grid.
  | Formal number of electrons (from input files) :      57.0000000000
  | Integrated number of electrons on 3D grid     :      57.0000000000
  | Charge integration error                      :      -0.0000000000
  | Normalization factor for density and gradient :       1.0000000000

  Evaluating partitioned Hartree potential by multipole expansion.
  | Original multipole sum: apparent total charge =  -0.295204E-13
  | Sum of charges compensated after spline to logarithmic grids =   0.174447E-03
  | Analytical far-field extrapolation by fixed multipoles:
  | Hartree multipole sum: apparent total charge =  -0.297171E-13
  Summing up the Hartree potential.
  Time summed over all CPUs for potential: real work        0.233 s, elapsed        0.248 s
  | RMS charge density error from multipole expansion :   0.329402E-01
  | Average real-space part of the electrostatic potential :      1.20935280 eV

  Integrating Hamiltonian matrix: batch-based integration.
  Time summed over all CPUs for integration: real work       20.772 s, elapsed       21.558 s

  Updating Kohn-Sham eigenvalues and eigenvectors using ELSI and the (modified) LAPACK eigensolver.
  Starting LAPACK eigensolver
  Finished Cholesky decomposition
  | Time :     0.001 s
  Finished transformation to standard eigenproblem
  | Time :     0.000 s
  Finished solving standard eigenproblem
  | Time :     0.003 s
  Finished back-transformation of eigenvectors
  | Time :     0.000 s

  Obtaining occupation numbers and electronic chemical potential using ELSI.
  | Note that, for insulating systems, the printed 'chemical potential' value is not uniquely defined.
  | It can be anywhere in the energy gap, as long as it correctly separates occupied and unoccupied states.
  | In systems with a gap, the physically relevant chemical potential is the VBM or HOMO.

  | Chemical potential (Fermi level):    -6.00919955 eV
  What follows are estimated values for band gap, HOMO, LUMO, etc.
  | They are estimated on a discrete k-point grid and not necessarily exact.
  | For converged numbers, create a DOS and/or band structure plot on a denser k-grid.

  Highest occupied state (VBM) at     -6.19572132 eV (relative to internal zero)
  | Occupation number:      2.02410681
  | K-point:      22 at    0.500000    0.500000    0.333333 (in units of recip. lattice)

  Lowest unoccupied state (CBM) at    -5.92970342 eV (relative to internal zero)
  | Occupation number:      0.02250549
  | K-point:       2 at    0.000000    0.000000    0.333333 (in units of recip. lattice)

  The gap value is above 0.2 eV. Unless you are using a very sparse k-point grid,
  this system is most likely an insulator or a semiconductor.
  ESTIMATED overall HOMO-LUMO gap:      0.26601790 eV between HOMO at k-point 22 and LUMO at k-point 2
  | This appears to be an indirect band gap.
  | Smallest direct gap :      1.25626632 eV for k_point 1 at    0.000000    0.000000    0.000000 (in units of recip. lattice)

  Checking to see if s.c.f. parameters should be adjusted.

  Total energy components:
  | Sum of eigenvalues            :        -702.85719102 Ha      -19125.71727355 eV
  | XC energy correction          :         -82.06397028 Ha       -2233.07424898 eV
  | XC potential correction       :         106.17871430 Ha        2889.26982054 eV
  | Free-atom electrostatic energy:        -521.49440034 Ha      -14190.58464214 eV
  | Hartree energy correction     :          -2.68663019 Ha         -73.10692704 eV
  | Entropy correction            :          -0.00004730 Ha          -0.00128715 eV
  | ---------------------------
  | Total energy                  :       -1202.92347753 Ha      -32733.21327116 eV
  | Total energy, T -> 0          :       -1202.92354060 Ha      -32733.21498737 eV  <-- do not rely on this value for anything but (periodic) metals
  | Electronic free energy        :       -1202.92357213 Ha      -32733.21584547 eV

  Derived energy quantities:
  | Kinetic energy                :        1217.34245917 Ha       33125.57372463 eV
  | Electrostatic energy          :       -2338.20196642 Ha      -63625.71274682 eV
  | Energy correction for multipole
  | error in Hartree potential    :           0.02740969 Ha           0.74585572 eV
  | Sum of eigenvalues per atom                           :       -1593.80977280 eV
  | Total energy (T->0) per atom                          :       -2727.76791561 eV  <-- do not rely on this value for anything but (periodic) metals
  | Electronic free energy per atom                       :       -2727.76798712 eV
  Evaluating new KS density using the density matrix
  Evaluating density matrix
  Time summed over all CPUs for getting density from density matrix: real work       31.614 s, elapsed       33.013 s
  Integration grid: deviation in total charge (<rho> - N_e) =   9.237056E-14

  Self-consistency convergence accuracy:
  | Change of charge density      :  0.4107E+00
  | Change of unmixed KS density  :  0.2779E-02
  | Change of sum of eigenvalues  :  0.7126E+02 eV
  | Change of total energy        :  0.2757E+01 eV


------------------------------------------------------------
  End self-consistency iteration #     2       :  max(cpu_time)    wall_clock(cpu1)
  | Time for this iteration                     :        3.693 s           3.710 s
  | Charge density update                       :        2.063 s           2.072 s
  | Density mixing                              :        0.001 s           0.002 s
  | Hartree multipole update                    :        0.002 s           0.002 s
  | Hartree multipole summation                 :        0.250 s           0.251 s
  | Integration                                 :        1.350 s           1.356 s
  | Solution of K.-S. eqns.                     :        0.025 s           0.026 s
  | Total energy evaluation                     :        0.000 s           0.000 s

  Partial memory accounting:
  | Current value for overall tracked memory usage:
  |   Minimum:       11.827 MB (on task 15)
  |   Maximum:       11.963 MB (on task  8)
  |   Average:       11.908 MB
  | Peak value for overall tracked memory usage:
  |   Minimum:       29.304 MB (on task  0 after allocating gradient_basis_wave)
  |   Maximum:       30.528 MB (on task  7 after allocating gradient_basis_wave)
  |   Average:       29.905 MB
  | Largest tracked array allocation so far:
  |   Minimum:       11.170 MB (hamiltonian_shell on task  0)
  |   Maximum:       12.093 MB (hamiltonian_shell on task  7)
  |   Average:       11.616 MB
  Note:  These values currently only include a subset of arrays which are explicitly tracked.
  The "true" memory usage will be greater.
------------------------------------------------------------

------------------------------------------------------------
          Begin self-consistency iteration #    3

  Date     :  20260130, Time     :  190202.649
------------------------------------------------------------
  Pulay mixing of updated and previous charge densities.
  Available memory per node after mixing [GB]:     84.16
  Renormalizing the density to the exact electron count on the 3D integration grid.
  | Formal number of electrons (from input files) :      57.0000000000
  | Integrated number of electrons on 3D grid     :      57.0000000000
  | Charge integration error                      :       0.0000000000
  | Normalization factor for density and gradient :       1.0000000000

  Evaluating partitioned Hartree potential by multipole expansion.
  | Original multipole sum: apparent total charge =   0.324044E-13
  | Sum of charges compensated after spline to logarithmic grids =   0.155112E-03
  | Analytical far-field extrapolation by fixed multipoles:
  | Hartree multipole sum: apparent total charge =   0.321615E-13
  Summing up the Hartree potential.
  Time summed over all CPUs for potential: real work        0.232 s, elapsed        0.247 s
  | RMS charge density error from multipole expansion :   0.307492E-01
  | Average real-space part of the electrostatic potential :      1.10970451 eV

  Integrating Hamiltonian matrix: batch-based integration.
  Time summed over all CPUs for integration: real work       20.736 s, elapsed       21.602 s

  Updating Kohn-Sham eigenvalues and eigenvectors using ELSI and the (modified) LAPACK eigensolver.
  Starting LAPACK eigensolver
  Finished Cholesky decomposition
  | Time :     0.001 s
  Finished transformation to standard eigenproblem
  | Time :     0.001 s
  Finished solving standard eigenproblem
  | Time :     0.002 s
  Finished back-transformation of eigenvectors
  | Time :     0.000 s

  Obtaining occupation numbers and electronic chemical potential using ELSI.
  | Note that, for insulating systems, the printed 'chemical potential' value is not uniquely defined.
  | It can be anywhere in the energy gap, as long as it correctly separates occupied and unoccupied states.
  | In systems with a gap, the physically relevant chemical potential is the VBM or HOMO.

  | Chemical potential (Fermi level):    -6.19902660 eV
  What follows are estimated values for band gap, HOMO, LUMO, etc.
  | They are estimated on a discrete k-point grid and not necessarily exact.
  | For converged numbers, create a DOS and/or band structure plot on a denser k-grid.

  Highest occupied state (VBM) at     -6.28592097 eV (relative to internal zero)
  | Occupation number:      2.01128786
  | K-point:      22 at    0.500000    0.500000    0.333333 (in units of recip. lattice)

  Lowest unoccupied state (CBM) at    -5.98984975 eV (relative to internal zero)
  | Occupation number:     -0.01175425
  | K-point:      20 at    0.500000    0.250000    0.666667 (in units of recip. lattice)

  The gap value is above 0.2 eV. Unless you are using a very sparse k-point grid,
  this system is most likely an insulator or a semiconductor.
  ESTIMATED overall HOMO-LUMO gap:      0.29607121 eV between HOMO at k-point 22 and LUMO at k-point 20
  | This appears to be an indirect band gap.
  | Smallest direct gap :      1.31529802 eV for k_point 1 at    0.000000    0.000000    0.000000 (in units of recip. lattice)

  Total energy components:
  | Sum of eigenvalues            :        -703.07379854 Ha      -19131.61146407 eV
  | XC energy correction          :         -82.02563482 Ha       -2232.03108788 eV
  | XC potential correction       :         106.13012184 Ha        2887.94755249 eV
  | Free-atom electrostatic energy:        -521.49440034 Ha      -14190.58464214 eV
  | Hartree energy correction     :          -2.45697265 Ha         -66.85762744 eV
  | Entropy correction            :          -0.00004010 Ha          -0.00109114 eV
  | ---------------------------
  | Total energy                  :       -1202.92068450 Ha      -32733.13726902 eV
  | Total energy, T -> 0          :       -1202.92073797 Ha      -32733.13872388 eV  <-- do not rely on this value for anything but (periodic) metals
  | Electronic free energy        :       -1202.92076470 Ha      -32733.13945131 eV

  Derived energy quantities:
  | Kinetic energy                :        1217.10321565 Ha       33119.06357733 eV
  | Electrostatic energy          :       -2337.99826534 Ha      -63620.16975848 eV
  | Energy correction for multipole
  | error in Hartree potential    :           0.02439444 Ha           0.66380643 eV
  | Sum of eigenvalues per atom                           :       -1594.30095534 eV
  | Total energy (T->0) per atom                          :       -2727.76156032 eV  <-- do not rely on this value for anything but (periodic) metals
  | Electronic free energy per atom                       :       -2727.76162094 eV
  Evaluating new KS density using the density matrix
  Evaluating density matrix
  Time summed over all CPUs for getting density from density matrix: real work       32.144 s, elapsed       33.245 s
  Integration grid: deviation in total charge (<rho> - N_e) =   4.973799E-14

[...]
     18       2.00000          -0.904778          -24.62025
     19       2.00000          -0.655764          -17.84424
     20       2.00000          -0.516127          -14.04453
     21       2.00000          -0.515460          -14.02637
     22       2.00000          -0.488586          -13.29510
     23       2.00000          -0.469069          -12.76401
     24       2.00000          -0.428340          -11.65572
     25       2.00000          -0.420477          -11.44175
     26       2.00000          -0.403327          -10.97509
     27       2.00000          -0.288039           -7.83793
     28       2.00000          -0.263922           -7.18168
     29       2.00000          -0.256631           -6.98328
     30       2.00000          -0.233697           -6.35921
     31      -0.00024          -0.207676           -5.65114
     32      -0.00000          -0.138891           -3.77941
     33      -0.00000          -0.128041           -3.48417
     34       0.00000          -0.084120           -2.28903
     35       0.00000          -0.073659           -2.00436
     36       0.00000          -0.073155           -1.99064
     37       0.00000           0.031945            0.86926
     38       0.00000           0.032613            0.88745
     39       0.00000           0.206299            5.61367
     40       0.00000           0.212046            5.77005
     41       0.00000           0.346288            9.42297
     42       0.00000           0.371833           10.11808
     43       0.00000           0.374062           10.17875
     44       0.00000           0.460219           12.52319
     45       0.00000           0.472253           12.85067
     46       0.00000           0.504152           13.71867
     47       0.00000           0.504227           13.72072
     48       0.00000           0.578751           15.74862
     49       0.00000           0.583408           15.87534
     50       0.00000           0.597467           16.25790
     51       0.00000           0.820619           22.33017
     52       0.00000           0.857560           23.33541

  What follows are estimated values for band gap, HOMO, LUMO, etc.
  | They are estimated on a discrete k-point grid and not necessarily exact.
  | For converged numbers, create a DOS and/or band structure plot on a denser k-grid.

  Highest occupied state (VBM) at     -5.97428701 eV (relative to internal zero)
  | Occupation number:      1.44380695
  | K-point:      14 at    0.250000    0.500000    0.666667 (in units of recip. lattice)

  Lowest unoccupied state (CBM) at    -5.70661088 eV (relative to internal zero)
  | Occupation number:     -0.00352451
  | K-point:      11 at    0.250000    0.250000    0.666667 (in units of recip. lattice)

  This system has fractional occupation numbers. Since we use a finite k-point grid,
  this material is metallic within the approximate finite broadening function (occupation_type)
  applied to determine the occupation numbers. We conclude: there is no gap in this system.
  ESTIMATED overall HOMO-LUMO gap:      0.00000000 eV.

  | Chemical Potential                          :    -5.94696810 eV
  | Note that, for insulating systems, the printed 'chemical potential' value is not uniquely defined.
  | It can be anywhere in the energy gap, as long as it correctly separates occupied and unoccupied states.
  | In systems with a gap, the physically relevant chemical potential is the VBM or HOMO.

  Self-consistency cycle converged.


------------------------------------------------------------
  End self-consistency iteration #     9       :  max(cpu_time)    wall_clock(cpu1)
  | Time for this iteration                     :       51.231 s          51.474 s
  | Charge density & force component update     :       46.881 s          47.104 s
  | Density mixing                              :        0.002 s           0.002 s
  | Hartree multipole update                    :        0.002 s           0.002 s
  | Hartree multipole summation                 :        1.611 s           1.618 s
  | Hartree pot. SCF incomplete forces          :        1.438 s           1.445 s
  | Integration                                 :        1.270 s           1.276 s
  | Solution of K.-S. eqns.                     :        0.024 s           0.024 s
  | Total energy evaluation                     :        0.000 s           0.001 s

  Partial memory accounting:
  | Current value for overall tracked memory usage:
  |   Minimum:       11.099 MB (on task 11)
  |   Maximum:       11.354 MB (on task  9)
  |   Average:       11.237 MB
  | Peak value for overall tracked memory usage:
  |   Minimum:       43.908 MB (on task  0 after allocating d_wave)
  |   Maximum:       45.724 MB (on task  7 after allocating d_wave)
  |   Average:       44.798 MB
  | Largest tracked array allocation so far:
  |   Minimum:       11.170 MB (hamiltonian_shell on task  0)
  |   Maximum:       12.093 MB (hamiltonian_shell on task  7)
  |   Average:       11.616 MB
  Note:  These values currently only include a subset of arrays which are explicitly tracked.
  The "true" memory usage will be greater.
------------------------------------------------------------
  Removing unitary transformations (pure translations, rotations) from forces on atoms.
  Atomic forces before filtering:
  | Net force on center of mass :   0.264744E-01  0.158187E-01  0.897195E-02 eV/A
  Atomic forces after filtering:
  | Net force on center of mass :   0.000000E+00 -0.535218E-15  0.892031E-16 eV/A

  Energy and forces in a compact form:
  | Total energy uncorrected      :         -0.327552272525232E+05 eV
  | Total energy corrected        :         -0.327552321637273E+05 eV  <-- do not rely on this value for anything but (periodic) metals
  | Electronic free energy        :         -0.327552346193293E+05 eV
  Total atomic forces (unitary forces cleaned) [eV/Ang]:
  |    1         -0.700254427249175E+00          0.410987351792509E+00          0.208622083577789E-02
  |    2         -0.220136664602274E+00         -0.831103794161074E+00          0.150578810598386E+00
  |    3          0.646039942336882E+00          0.625155097699577E+00         -0.149066365151546E+00
  |    4         -0.700844729237753E+00          0.104456381788083E+01         -0.284366539257444E-01
  |    5         -0.507345045193709E+00         -0.136672068589822E+01         -0.215603217047842E-01
  |    6          0.135041776034606E+01          0.222384502366207E+00          0.286031557046988E-01
  |    7          0.480616577706627E+00         -0.129227021633632E+01         -0.248105805405172E-01
  |    8          0.920334631274885E+00          0.111009762901896E+01          0.186815652149305E-01
  |    9         -0.126118285216037E+01          0.754908485751565E-01          0.232713102726220E-01
  |   10         -0.250571157834745E+01          0.144516652487730E+01          0.217036323573259E-02
  |   11          0.736755003214924E-01         -0.275785916505369E+01          0.149338510493650E+00
  |   12          0.242439088480479E+01          0.131410808923877E+01         -0.150856015033206E+00

  Summary for the variables related to the applied external pressure:
  | Cell volume                   :     46.47043938 A**3
  | External pressure             :      0.93622640 eV/A**3
  | Internal pressure             :      0.95901312 eV/A**3
  | Total pressure inside system  :      0.02278671 eV/A**3
  Since the calculation is done at T = 0K, the Gibbs free energy is G = E_tot + p_ext * V:
  | Gibbs free energy             :  -0.327117204002824E+05 eV

  ------------------------------------ 
  Start decomposition of the XC Energy 
  ------------------------------------ 
  X and C from original XC functional choice 
  Hartree-Fock Energy :          0.000000000 Ha              0.000000000 eV
  X Energy            :        -78.794689122 Ha          -2144.112582263 eV
  C Energy            :         -2.431056016 Ha            -66.152399998 eV
  XC Energy w/o HF    :        -81.225745138 Ha          -2210.264982261 eV
  Total XC Energy     :        -81.225745138 Ha          -2210.264982261 eV
  ------------------------------------ 
  LDA X and C from self-consistent density 
  X Energy LDA        :        -73.401361026 Ha          -1997.352657692 eV
  C Energy LDA        :         -4.268947174 Ha           -116.163962975 eV
  ------------------------------------ 
  End decomposition of the XC Energy 
  ------------------------------------ 

------------------------------------------------------------
  Relaxation / MD: End force evaluation.       :  max(cpu_time)    wall_clock(cpu1)
  | Time for this force evaluation              :       86.865 s          87.389 s

------------------------------------------------------------
  Geometry optimization: Attempting to predict improved coordinates.

  +-------------------------------------------------------------------+
  | Generalized derivatives on lattice vectors [eV/A]                 |
  +-------------------------------------------------------------------+
  |lattice_vector       0.15961940       0.00890552       0.03394754  |
  |lattice_vector      -0.07532883       0.14850154       0.02224309  |
  |lattice_vector       0.01636548       0.01501223      -0.88023525  |
  +-------------------------------------------------------------------+
  | Forces on lattice vectors cleaned from atomic contributions [eV/A]|
  +-------------------------------------------------------------------+
  |lattice_vector      -0.15961940      -0.00890552      -0.03394754  |
  |lattice_vector       0.07532883      -0.14850154      -0.02224309  |
  |lattice_vector      -0.01636548      -0.01501223       0.88023525  |
  +-------------------------------------------------------------------+
  Removing unitary transformations (pure translations, rotations) from forces on atoms.
  Atomic forces before filtering:
  | Net force on center of mass :   0.000000E+00 -0.535218E-15  0.892031E-16 eV/A
  Atomic forces after filtering:
  | Net force on center of mass :   0.356812E-15 -0.356812E-15  0.000000E+00 eV/A
  Net remaining forces (excluding translations, rotations) in present geometry:
  || Forces on atoms   || =   0.275786E+01 eV/A.
  || Forces on lattice || =   0.880235E+00 eV/A^3.
  Maximum force component is  0.275786E+01 eV/A.
  Present geometry is converged.

------------------------------------------------------------
  Reminder: External pressure of  0.936E+00 eV/A**3 ( 0.150E+03 GPa) is applied to system.
  Final atomic structure:
                         x [A]             y [A]             z [A]
  lattice_vector         3.30108523        0.05514772       -0.01306208
  lattice_vector        -1.60345661        2.88694826       -0.01422466
  lattice_vector        -0.00188239       -0.00478816        4.83140678

            atom        -1.06291696        2.57135847        3.20672386  S
            atom        -0.00712990        0.66005135       -0.00494867  S
            atom         1.12138904        2.61561815        1.58818904  S
            atom        -0.05073299        2.34263747        0.43738404  H
            atom        -0.25703105        1.63249542        2.04621336  H
            atom         0.43914996        1.82477986        3.65826935  H
            atom         0.33441158        1.64361934        2.75601827  H
            atom         0.15300272        2.34234448        4.36796486  H
            atom        -0.35637697        1.81274719        1.14531222  H
            atom         2.06665310        0.76614490        0.79193693  H
            atom         1.66908978        1.51096400        2.40523026  H
            atom         1.22137222        0.73528153        4.00956159  H

  Fractional coordinates:
                         L1                L2                L3
       atom_frac         0.11053882        0.88967805        0.66664291  S
       atom_frac         0.10789420        0.22657175       -0.00006550  S
       atom_frac         0.77307300        0.89180036        0.33343757  S
       atom_frac         0.37543166        0.80444218        0.09391279  H
       atom_frac         0.19557979        0.56244444        0.42570802  H
       atom_frac         0.43704642        0.62499137        0.76020682  H
       atom_frac         0.37515412        0.56311179        0.57311023  H
       atom_frac         0.43764248        0.80450190        0.90762905  H
       atom_frac         0.19555659        0.62457271        0.23942321  H
       atom_frac         0.74824497        0.25136543        0.16667737  H
       atom_frac         0.75353986        0.50981469        0.50137054  H
       atom_frac         0.49029934        0.24670554        0.83194718  H
------------------------------------------------------------

------------------------------------------------------------------------------
  Final output of selected total energy values:

  The following output summarizes some interesting total energy values
  at the end of a run (AFTER all relaxation, molecular dynamics, etc.).

  | Total energy of the DFT / Hartree-Fock s.c.f. calculation      :         -32755.227252523 eV
  | Final zero-broadening corrected energy (caution - metals only) :         -32755.232163727 eV
  | For reference only, the value of 1 Hartree used in FHI-aims is :             27.211384500 eV
  | For reference only, the overall average (free atom contribution
  | + realspace contribution) of the electrostatic potential after
  | s.c.f. convergence is                                          :            -21.165694899 eV

  Before relying on these values, please be sure to understand exactly which
  total energy value is referred to by a given number. Different objects may
  all carry the same name 'total energy'. Definitions:

  Total energy of the DFT / Hartree-Fock s.c.f. calculation:
  | Note that this energy does not include ANY quantities calculated after the
  | s.c.f. cycle, in particular not ANY RPA, MP2, etc. many-body perturbation terms.

  Final zero-broadening corrected energy:
  | For metallic systems only, a broadening of the occupation numbers at the Fermi
  | level can be extrapolated back to zero broadening by an electron-gas inspired
  | formula. For all systems that are not real metals, this value can be
  | meaningless and should be avoided.

------------------------------------------------------------------------------
  Methods described in the following list of references were used in this FHI-aims run.
  If you publish the results, please make sure to cite these reference if they apply.
  FHI-aims is an academic code, and for our developers (often, Ph.D. students
  and postdocs), scientific credit in the community is essential.
  Thank you for helping us!

  For any use of FHI-aims, please cite:

    Volker Blum, Ralf Gehrke, Felix Hanke, Paula Havu, Ville Havu,
    Xinguo Ren, Karsten Reuter, and Matthias Scheffler
    'Ab initio molecular simulations with numeric atom-centered orbitals'
    Computer Physics Communications 180, 2175-2196 (2009)
    http://doi.org/10.1016/j.cpc.2009.06.022


  For the analytical stress tensor used in your run, please cite:

    Franz Knuth, Christian Carbogno, Viktor Atalla, Volker Blum, Matthias Scheffler
    'All-electron formalism for total energy strain derivatives and
    stress tensor components for numeric atom-centered orbitals'
    Computer Physics Communications 190, 33-50 (2015).
    http://doi.org/10.1016/j.cpc.2015.01.003


  The provided symmetry information was generated with SPGlib:

    Atsushi Togo, Yusuke Seto, Dimitar Pashov
    SPGlib 1.7.3 obtained from http://spglib.sourceforge.net
    Licence: New BSD license
    Copyright (C) 2008 Atsushi Togo


  The ELSI infrastructure was used in your run to solve the Kohn-Sham electronic structure.
  Please check out https://wordpress.elsi-interchange.org to learn more.
  If scalability is important for your project, please acknowledge ELSI by citing:

    V. W-z. Yu, F. Corsetti, A. Garcia, W. P. Huhn, M. Jacquelin, W. Jia,
    B. Lange, L. Lin, J. Lu, W. Mi, A. Seifitokaldani, A. Vazquez-Mayagoitia,
    C. Yang, H. Yang, and V. Blum
    'ELSI: A unified software interface for Kohn-Sham electronic structure solvers'
    Computer Physics Communications 222, 267-285 (2018).
    http://doi.org/10.1016/j.cpc.2017.09.007


  For the real-space grid partitioning and parallelization used in this calculation, please cite:

    Ville Havu, Volker Blum, Paula Havu, and Matthias Scheffler,
    'Efficient O(N) integration for all-electron electronic structure calculation'
    'using numerically tabulated basis functions'
    Journal of Computational Physics 228, 8367-8379 (2009).
    http://doi.org/10.1016/j.jcp.2009.08.008

  Of course, there are many other important community references, e.g., those cited in the
  above references. Our list is limited to references that describe implementations in the
  FHI-aims code. The reason is purely practical (length of this list) - please credit others as well.
------------------------------------------------------------
Warnings summary:

At least    3 warnings were raised during execution.

------------------------------------------------------------
          Leaving FHI-aims.
          Date     :  20260130, Time     :  190804.820

          Computational steps:
          | Number of self-consistency cycles          :           39
          | Number of SCF (re)initializations          :            4
          | Number of relaxation steps                 :            3

          Detailed time accounting                     :  max(cpu_time)    wall_clock(cpu1)
          | Total time                                  :      375.648 s         377.595 s
          | Preparation time                            :        0.192 s           0.193 s
          | Boundary condition initalization            :        0.356 s           0.357 s
          | Grid partitioning                           :        0.357 s           0.359 s
          | Preloading free-atom quantities on grid     :       11.111 s          11.164 s
          | Free-atom superposition energy              :        0.704 s           0.705 s
          | Total time for integrations                 :       56.833 s          57.094 s
          | Total time for solution of K.-S. equations  :        0.976 s           0.986 s
          | Total time for EV reorthonormalization      :        0.011 s           0.005 s
          | Total time for density & force components   :      272.259 s         273.520 s
          | Total time for mixing                       :        0.061 s           0.058 s
          | Total time for Hartree multipole update     :        0.077 s           0.079 s
          | Total time for Hartree multipole sum        :       20.503 s          20.587 s
          | Total time for total energy evaluation      :        0.008 s           0.016 s
          | Total time NSC force correction             :       11.836 s          11.894 s
          | Total time for scaled ZORA corrections      :        0.000 s           0.000 s

          Partial memory accounting:
          | Residual value for overall tracked memory usage across tasks:     0.000000 MB (should be 0.000000 MB)
          | Peak values for overall tracked memory usage:
          |   Minimum:       43.908 MB (on task  0 after allocating d_wave)
          |   Maximum:       45.724 MB (on task  7 after allocating d_wave)
          |   Average:       44.798 MB
          | Largest tracked array allocation:
          |   Minimum:       11.170 MB (hamiltonian_shell on task  0)
          |   Maximum:       12.093 MB (hamiltonian_shell on task  7)
          |   Average:       11.616 MB
          Note:  These values currently only include a subset of arrays which are explicitly tracked.
          The "true" memory usage will be greater.

          Have a nice day.
------------------------------------------------------------
