------------------------------------------------------------
          Invoking FHI-aims ...

          When using FHI-aims, please cite the following reference:

            Volker Blum, Ralf Gehrke, Felix Hanke, Paula Havu,
            Ville Havu, Xinguo Ren, Karsten Reuter, and Matthias Scheffler,
            'Ab Initio Molecular Simulations with Numeric Atom-Centered Orbitals',
            Computer Physics Communications 180, 2175-2196 (2009)

          In addition, many other developments in FHI-aims are likely important for
          your particular application. If so, please cite them. A partial list of references
          is written at the end of this file. Thank you for giving credit to the authors
          of these developments.

          For general information about FHI-aims please find us at

            https://fhi-aims.org

          Online tutorials can be found at

            https://fhi-aims-club.gitlab.io/tutorials/tutorials-overview/

          For any questions about FHI-aims, please visit our slack channel at

            https://fhi-aims.slack.com

          and our main development and support site at

            https://aims-git.rz-berlin.mpg.de .

          The latter site, in particular, has a wiki to collect information, as well
          as an issue tracker to log discussions, suggest improvements, and report issues
          or bugs. https://aims-git.rz-berlin.mpg.de is also the main development site
          of the project and all new and updated code versions can be obtained there.
          Please send an email to aims-coordinators@fhi-berlin.mpg.de and we will add
          you to these sites. They are for you and everyone is welcome there.

------------------------------------------------------------



  Date     :  20260302, Time     :  015209.931
  Time zero on CPU 1             :   0.255680000000000E-01  s.
  Internal wall clock time zero  :           541648329.931  s.

  FHI-aims created a unique identifier for this run for later identification
  aims_uuid : 2FEBE36A-2290-4781-AFB4-C279FCEF0B69

  Build configuration of the current instance of FHI-aims
  -------------------------------------------------------
  FHI-aims version      : 250822
  Commit number         : GITDIR-NOTFOUND
  CMake host system     : Linux-6.17.0-14-generic
  CMake version         : 3.28.3
  OS Distribution       : Ubuntu 24.04.4 LTS
  Built on              : Intel(R) Core(TM) i9-10900KF CPU @ 3.70GHz
  Fortran compiler      : /usr/bin/mpif90 (GNU) version 13.3.0
  Fortran compiler flags: -O3 -march=native -mtune=native -fallow-argument-mismatch
  C compiler            : /usr/bin/mpicc (GNU) version 13.3.0
  C compiler flags      : -O3 -march=native -mtune=native -std=gnu11
  C++ compiler          : /usr/bin/mpicxx (GNU) version 13.3.0
  C++ compiler flags    : -O3 -march=native -mtune=native
  HIP compiler          :
  HIP compiler flags    :
  HIP GPU arch          :
  Using MPI
  Using ScaLAPACK
  Using LibXC
  Using i-PI
  Using RLSY
  Linking against: /opt/intel/oneapi/mkl/2025.0/lib/libmkl_scalapack_lp64.so
                   /opt/intel/oneapi/mkl/2025.0/lib/libmkl_blacs_openmpi_lp64.so
                   /opt/intel/oneapi/mkl/2025.0/lib/libmkl_intel_lp64.so
                   /opt/intel/oneapi/mkl/2025.0/lib/libmkl_sequential.so
                   /opt/intel/oneapi/mkl/2025.0/lib/libmkl_core.so
                   /usr/lib/x86_64-linux-gnu/libpthread.a
                   /usr/lib/x86_64-linux-gnu/libdl.a
                   /usr/lib/x86_64-linux-gnu/libm.so

  Using        8 parallel tasks.
  Task        0 on host cucciari-lab reporting.
  Task        1 on host cucciari-lab reporting.
  Task        2 on host cucciari-lab reporting.
  Task        3 on host cucciari-lab reporting.
  Task        4 on host cucciari-lab reporting.
  Task        5 on host cucciari-lab reporting.
  Task        6 on host cucciari-lab reporting.
  Task        7 on host cucciari-lab reporting.

  Obtaining array dimensions for all initial allocations:
  
  -----------------------------------------------------------------------
  Parsing control.in (first pass over file, find array dimensions only).
  The contents of control.in will be repeated verbatim below
  unless switched off by setting 'verbatim_writeout .false.' .
  in the first line of control.in .
  -----------------------------------------------------------------------
  
  #########################################################################################
  #
  #  Volker Blum, FHI 2008 : Test run input file control.in for simple H2O
  #
  #########################################################################################
  #
  #  Physical model
  #
    xc                 pbe
    spin               none
    relativistic      atomic_zora scalar
    charge             0.
  #
  #  SCF convergence
  #
    occupation_type    methfessel-paxton  0.1 1
    mixer              pulay
        n_max_pulay        10
        charge_mix_param   0.02
    sc_accuracy_rho    1E-2
    sc_accuracy_eev    1E-1
    sc_accuracy_etot   1E-2
    KS_method          parallel
    basis_threshold    1.e-5
    override_illconditioning .true.
  #
  #  Relaxation
  #
     relax_geometry   bfgs 3.0
  #   max_atomic_move 0.1
     external_pressure 150
     pressure_unit GPa
     relax_unit_cell full
     max_relaxation_steps 10
  #  output mulliken
  #
  ################################################################################
  #
  #  FHI-aims code project
  #  VB, Fritz-Haber Institut, 2009
  #
  #  Suggested "light" defaults for S atom (to be pasted into control.in file)
  #  Be sure to double-check any results obtained with these settings for post-processing,
  #  e.g., with the "tight" defaults and larger basis sets.
  #
  #  2020/09/08 Added f function to "light" after reinspection of Delta test outcomes.
  #             This was done for all of Al-Cl and is a tricky decision since it makes
  #             "light" calculations measurably more expensive for these elements.
  #             Nevertheless, outcomes for P, S, Cl (and to some extent, Si) appear
  #             to justify this choice.
  #
  ################################################################################
    species        S
  #     global species definitions
      nucleus             16
      mass                32.065
  #
      l_hartree           4
  #
      cut_pot             3.5          1.5  1.0
      basis_dep_cutoff    1e-4
  #
      radial_base         44 5.0
      radial_multiplier   1
      angular_grids       specified
        division   0.4665  110
        division   0.5810  194
        division   0.7139  302
  #      division   0.8274  434
  #      division   0.9105  590
  #      division   1.0975  770
  #      division   1.2028  974
  #      outer_grid  974
        outer_grid  302
  ################################################################################
  #
  #  Definition of "minimal" basis
  #
  ################################################################################
  #     valence basis states
      valence      3  s   2.
      valence      3  p   4.
  #     ion occupancy
      ion_occ      3  s   1.
      ion_occ      3  p   3.
  ################################################################################
  #
  #  Suggested additional basis functions. For production calculations,
  #  uncomment them one after another (the most important basis functions are
  #  listed first).
  #
  #  Constructed for dimers: 1.6 A, 1.9 A, 2.5 A, 3.25 A, 4.0 A
  #
  ################################################################################
  #  "First tier" - improvements: -652.81 meV to -45.53 meV
       ionic 3 d auto
       hydro 2 p 1.8
       hydro 4 f 7
       ionic 3 s auto
  #  "Second tier" - improvements: -30.20 meV to -1.74 meV
  #     hydro 4 d 6.2
  #     hydro 5 g 10.8
  #     hydro 4 p 4.9
  #     hydro 5 f 10
  #     hydro 1 s 0.8
  #  "Third tier" - improvements: -1.04 meV to -0.20 meV
  #     hydro 3 d 3.9
  #     hydro 3 d 2.7
  #     hydro 5 g 12
  #     hydro 4 p 10.4
  #     hydro 5 f 12.4
  #     hydro 2 s 1.9
  #  "Fourth tier" - improvements: -0.35 meV to -0.06 meV
  #     hydro 4 d 10.4
  #     hydro 4 p 7.2
  #     hydro 4 d 10
  #     hydro 5 g 19.2
  #     hydro 4 s 12
  
  ################################################################################
  #
  #  FHI-aims code project
  #  VB, Fritz-Haber Institut, 2009
  #
  #  Suggested "light" defaults for H atom (to be pasted into control.in file)
  #  Be sure to double-check any results obtained with these settings for post-processing,
  #  e.g., with the "tight" defaults and larger basis sets.
  #
  ################################################################################
    species        H
  #     global species definitions
      nucleus             1
      mass                1.00794
  #
      l_hartree           4
  #
      cut_pot             3.5  1.5  1.0
      basis_dep_cutoff    1e-4
  #
      radial_base         24 5.0
      radial_multiplier   1
      angular_grids       specified
        division   0.2421   50
        division   0.3822  110
        division   0.4799  194
        division   0.5341  302
  #      division   0.5626  434
  #      division   0.5922  590
  #      division   0.6542  770
  #      division   0.6868 1202
  #      outer_grid  770
        outer_grid  302
  ################################################################################
  #
  #  Definition of "minimal" basis
  #
  ################################################################################
  #     valence basis states
      valence      1  s   1.
  #     ion occupancy
      ion_occ      1  s   0.5
  ################################################################################
  #
  #  Suggested additional basis functions. For production calculations,
  #  uncomment them one after another (the most important basis functions are
  #  listed first).
  #
  #  Basis constructed for dimers: 0.5 A, 0.7 A, 1.0 A, 1.5 A, 2.5 A
  #
  ################################################################################
  #  "First tier" - improvements: -1014.90 meV to -62.69 meV
       hydro 2 s 2.1
       hydro 2 p 3.5
  #  "Second tier" - improvements: -12.89 meV to -1.83 meV
  #     hydro 1 s 0.85
  #     hydro 2 p 3.7
  #     hydro 2 s 1.2
  #     hydro 3 d 7
  #  "Third tier" - improvements: -0.25 meV to -0.12 meV
  #     hydro 4 f 11.2
  #     hydro 3 p 4.8
  #     hydro 4 d 9
  #     hydro 3 s 3.2
  k_grid 3 3 3
  
  -----------------------------------------------------------------------
  Completed first pass over input file control.in .
  -----------------------------------------------------------------------
  
  
  -----------------------------------------------------------------------
  Parsing geometry.in (first pass over file, find array dimensions only).
  The contents of geometry.in will be repeated verbatim below
  unless switched off by setting 'verbatim_writeout .false.' .
  in the first line of geometry.in .
  -----------------------------------------------------------------------
  
  #===============================================================================
  # Created using the Atomic Simulation Environment (ASE)
  
  # Mon Mar  2 01:52:09 2026
  
  #=======================================================
  lattice_vector 3.2854234000000000 0.0000000000000000 0.0000000000000000
  lattice_vector 0.0000000000000000 3.7223170600000000 0.0000000000000000
  lattice_vector 0.0000000000000000 0.0000000000000000 4.1501740800000002
  atom 0.0000000000000000 0.0000000000000000 0.0000000000000000 H
  atom 0.6560278907091560 1.8611585300000000 0.0000000000000000 H
  atom 2.6293955092908443 1.8611585300000000 0.0000000000000000 H
  atom 1.6427117000000000 1.8611585300000000 2.0750870400000001 S
  
  -----------------------------------------------------------------------
  Completed first pass over input file geometry.in .
  -----------------------------------------------------------------------
  

  Basic array size parameters:
  | Number of species                 :        2
  | Number of atoms                   :        4
  | Number of lattice vectors         :        3
  | Max. basis fn. angular momentum   :        3
  | Max. atomic/ionic basis occupied n:        3
  | Max. number of basis fn. types    :        3
  | Max. radial fns per species/type  :        5
  | Max. logarithmic grid size        :     1357
  | Max. radial integration grid size :       44
  | Max. angular integration grid size:      302
  | Max. angular grid division number :        8
  | Radial grid for Hartree potential :     1357
  | Number of spin channels           :        1

  Definition of standardized fundamental physical constants in this FHI-aims run:
  | Using the set of values used in FHI-aims up to 2024, which combines values from
  | different CODATA sets - see constants.f90.
  | Use the 'codata' keyword in control.in to change this selection.

  Memory overcommitment is allowed on your operating system.

------------------------------------------------------------
          Reading file control.in.
------------------------------------------------------------
  XC: Using PBE gradient-corrected functionals.
  Spin treatment: No spin polarisation.
  Scalar relativistic treatment of kinetic energy: on-site free-atom approximation to ZORA.
  Charge =   0.000000E+00: Neutral system requested explicitly.
  Occupation type: Methfessel-Paxton broadening, width =   0.100000E+00 eV, N =    1
  Using pulay charge density mixing.
  Pulay mixing - number of memorized iterations:   10
  Charge density mixing - mixing parameter:     0.0200
  Convergence accuracy of self-consistent charge density:  0.1000E-01
  Convergence accuracy of sum of eigenvalues:  0.1000E+00
  Convergence accuracy of total energy:  0.1000E-01
  Kohn-Sham electronic structure solved by the ELSI library.
  Threshold for basis singularities:  0.1000E-04
  override_illconditioning: Explicitly overriding any built-in checks for an ill-conditioned overlap matrix.
** WARNING:
  ***  If you use this flag, you should really know what you are doing.
** END OF WARNING
** WARNING:
  *** DO NOT keep this flag set by default in all your control.in files.
** END OF WARNING
  Geometry relaxation: Modified BFGS - TRM (trust radius method) for lattice optimization.
  Convergence accuracy for geometry relaxation: Maximum force <   0.300000E+01 eV/A.
  pressure_unit: Unit for the external pressure set to GPa.
  Maximum steps for geometry relaxation:       10

  Reading configuration options for species S                   .
  | Found nuclear charge :  16.0000
  | Found atomic mass :    32.064999999999998      amu
  | Found l_max for Hartree potential  :   4
  | Found cutoff potl. onset [A], width [A], scale factor :    3.50000    1.50000    1.00000
  | Threshold for basis-dependent cutoff potential is   0.100000E-03
  | Found data for basic radial integration grid :    44 points, outermost radius =    5.000 A
  | Found multiplier for basic radial grid :   1
  | Found angular grid specification: user-specified.
  | Specified grid contains     4 separate shells.
  | Check grid settings after all constraints further below.
  | Found free-atom valence shell :  3 s   2.000
  | Found free-atom valence shell :  3 p   4.000
  | Found free-ion valence shell :  3 s   1.000
  | Found free-ion valence shell :  3 p   3.000
  | Found ionic basis function :  3 d , default cutoff radius.
  | Found hydrogenic basis function :  2 p   1.800
  | Found hydrogenic basis function :  4 f   7.000
  | Found ionic basis function :  3 s , default cutoff radius.
 | Encountered keyword species, ending the description of species S                   .
  Species S                   : Missing cutoff potential type.
  Defaulting to exp(1/x)/(1-x)^2 type cutoff potential.
  Species S : No 'logarithmic' tag. Using default grid for free atom:
  | Default logarithmic grid data [bohr] : 0.1000E-03 0.1000E+03 0.1012E+01
  | Will include ionic basis functions of  2.0-fold positive S                    ion.
  Species S : On-site basis accuracy parameter (for Gram-Schmidt orthonormalisation) not specified.
  Using default value basis_acc =  0.1000000E-03.
  Species S                   : Using default innermost maximum threshold i_radial=  2 for radial functions.
  Species S                   : Default cutoff onset for free atom density etc. : 0.35000000E+01 AA.
  Species S                   : Basic radial grid will be enhanced according to radial_multiplier =   1, to contain    44 grid points.

  Reading configuration options for species H                   .
  | Found nuclear charge :   1.0000
  | Found atomic mass :    1.0079400000000001      amu
  | Found l_max for Hartree potential  :   4
  | Found cutoff potl. onset [A], width [A], scale factor :    3.50000    1.50000    1.00000
  | Threshold for basis-dependent cutoff potential is   0.100000E-03
  | Found data for basic radial integration grid :    24 points, outermost radius =    5.000 A
  | Found multiplier for basic radial grid :   1
  | Found angular grid specification: user-specified.
  | Specified grid contains     5 separate shells.
  | Check grid settings after all constraints further below.
  | Found free-atom valence shell :  1 s   1.000
  | Found free-ion valence shell :  1 s   0.500
  | Found hydrogenic basis function :  2 s   2.100
  | Found hydrogenic basis function :  2 p   3.500
 | Encountered keyword k_grid, ending the description of species H                   .
  Species H                   : Missing cutoff potential type.
  Defaulting to exp(1/x)/(1-x)^2 type cutoff potential.
  Species H : No 'logarithmic' tag. Using default grid for free atom:
  | Default logarithmic grid data [bohr] : 0.1000E-03 0.1000E+03 0.1012E+01
  Species H : On-site basis accuracy parameter (for Gram-Schmidt orthonormalisation) not specified.
  Using default value basis_acc =  0.1000000E-03.
  Species H                   : Using default innermost maximum threshold i_radial=  2 for radial functions.
  Species H                   : Default cutoff onset for free atom density etc. : 0.35000000E+01 AA.
  Species H                   : Basic radial grid will be enhanced according to radial_multiplier =   1, to contain    24 grid points.
  Found k-point grid:         3         3         3

  Finished reading input file 'control.in'.

------------------------------------------------------------


------------------------------------------------------------
          Reading geometry description geometry.in.
------------------------------------------------------------
  | The smallest distance between any two atoms is         1.31205578 AA.
  | The first atom of this pair is atom number                      2 .
  | The second atom of this pair is atom number                     3 .
  | Wigner-Seitz cell of the first atom image           0     0     0 .
  | (The Wigner-Seitz cell of the second atom is 0 0 0  by definition.)

  Symmetry information by spglib:
  | Precision set to  0.1E-04
  | Number of Operations  : 8
  | Space group           : 47
  | International         : Pmmm
  | Schoenflies           : D2h^1
  Input structure read successfully.
  The structure contains        4 atoms,  and a total of         19.000 electrons.

  Input geometry:
  | Unit cell:
  |        3.28542340        0.00000000        0.00000000
  |        0.00000000        3.72231706        0.00000000
  |        0.00000000        0.00000000        4.15017408
  | Atomic structure:
  |       Atom                x [A]            y [A]            z [A]
  |    1: Species H             0.00000000        0.00000000        0.00000000
  |    2: Species H             0.65602789        1.86115853        0.00000000
  |    3: Species H             2.62939551        1.86115853        0.00000000
  |    4: Species S             1.64271170        1.86115853        2.07508704

  Lattice parameters for 3D lattice (in Angstroms) :     3.285423    3.722317    4.150174
  Angle(s) between unit vectors (in degrees)       :    90.000000   90.000000   90.000000


  Quantities derived from the lattice vectors (in Angstrom^-1):
  | Reciprocal lattice vector 1:  1.912443  0.000000  0.000000
  | Reciprocal lattice vector 2:  0.000000  1.687977  0.000000
  | Reciprocal lattice vector 3:  0.000000  0.000000  1.513957
  | Unit cell volume                               :   0.507541E+02  Angstrom^3

  Fractional coordinates:
                         L1                L2                L3
       atom_frac         0.00000000        0.00000000        0.00000000  H
       atom_frac         0.19967834        0.50000000        0.00000000  H
       atom_frac         0.80032166        0.50000000        0.00000000  H
       atom_frac         0.50000000        0.50000000        0.50000000  S

  Slab Identifier: This seems to be a bulk system.

  Finished reading input file 'geometry.in'.



  Consistency checks for stacksize environment parameter are next.

  | Maximum stacksize for task 0: unlimited
  | Maximum stacksize for task 1: unlimited
  | Maximum stacksize for task 2: unlimited
  | Maximum stacksize for task 3: unlimited
  | Maximum stacksize for task 4: unlimited
  | Maximum stacksize for task 5: unlimited
  | Maximum stacksize for task 6: unlimited
  | Maximum stacksize for task 7: unlimited
  | Current stacksize for task 0: unlimited
  | Current stacksize for task 1: unlimited
  | Current stacksize for task 2: unlimited
  | Current stacksize for task 3: unlimited
  | Current stacksize for task 4: unlimited
  | Current stacksize for task 5: unlimited
  | Current stacksize for task 6: unlimited
  | Current stacksize for task 7: unlimited

  Consistency checks for the contents of control.in are next.

  MPI_IN_PLACE appears to work with this MPI implementation.
  | Keeping use_mpi_in_place .true. (see manual).
  Target number of points in a grid batch is not set. Defaulting to  100
  Method for grid partitioning is not set. Defaulting to parallel hash+maxmin partitioning.
  Batch size limit is not set. Defaulting to    200
  By default, will store active basis functions for each batch.
  If in need of memory, prune_basis_once .false. can be used to disable this option.
  communication_type for Hartree potential was not specified.
  Defaulting to calc_hartree .
  Pulay mixer: Number of initial linear mixing iterations not set.
  Defaulting to    0 iterations.
  Work space size for distributed Hartree potential not set.
  Defaulting to   0.200000E+03 MB.
  Algorithm-dependent basis array size parameters:
  | n_max_pulay                         :       10
  Maximum number of self-consistency iterations not provided.
  Presetting  1000 iterations.
  Presetting      1001 iterations before the initial mixing cycle
  is restarted anyway using the sc_init_iter criterion / keyword.
  Presetting a factor      1.000 between actual scf density residual
  and density convergence criterion sc_accuracy_rho below which sc_init_iter
  takes no effect.
  Default initial Hessian is Lindh matrix (thres = 15.00) plus  0.200000E+01 eV/A^2 times unity.
  No maximum energy tolerance for TRM/BFGS moves, defaulting to   0.150000E-02
  Maximum energy tolerance by which TRM/BFGS trajectory may increase over multiple steps:   0.300000E-02
  No harmonic length scale. Defaulting to   0.250000E-01 A.
  No trust radius initializer. Defaulting to   0.200000E+00 A.
  External pressure of  0.936E+00 eV/A**3 ( 0.150E+03 GPa) is applied to system.
  Unit cell relaxation: Unit cell will be relaxed fully.
  Unit cell relaxation: Analytical stress will be used.
  Analytical stress will be computed.
  Analytical stress calculation: Only the upper triangle is calculated.
                                 Final output is symmetrized.
  Analytical stress calculation: scf convergence accuracy of stress not set.
                                 Analytical stress self-consistency will not be checked explicitly.
                                 Be sure to set other criteria like sc_accuracy_rho tight enough.
  Forces evaluation will include force correction term due to incomplete self-consistency (default).
  Force calculation: scf convergence accuracy of forces not set.
  Defaulting to 'sc_accuracy_forces not_checked'.
  Handling of forces: Unphysical translation and rotation will be removed from forces.
  No accuracy limit for integral partition fn. given. Defaulting to  0.1000E-14.
  No threshold value for u(r) in integrations given. Defaulting to  0.1000E-05.
  No accuracy for occupation numbers given. Defaulting to  0.1000E-12.
  No threshold value for occupation numbers given. Defaulting to  0.0000E+00.
  No accuracy for fermi level given. Defaulting to  0.1000E-19.
  Maximum # of iterations to find E_F not set. Defaulting to  200.
 * You have    27 k-points in your system, but only     8 MPI-tasks available.
 * In this case using ScaLAPACK is not necessary / supported.
 * Switching to LAPACK (via ELSI) instead.
  Will not use alltoall communication since running on < 1024 CPUs.
  partition_type (choice of integration weights) for integrals was not specified.
  | Using a version of the partition function of Stratmann and coworkers ('stratmann_sparse').
  | At each grid point, the set of atoms used to build the partition table is smoothly restricted to
  | only those atoms whose free-atom density would be non-zero at that grid point.
  Partitioning for Hartree potential was not defined. Using partition_type for integrals.
  | Adjusted default value of keyword multip_moments_threshold to:       0.10000000E-11
  | This value may affect high angular momentum components of the Hartree potential in periodic systems.
  Using 2025 definition of centers list for evaluation of the Stratmann partition function.
  No q(lm)/r^(l+1) cutoff set for long-range Hartree potential.
  | Using default value of  0.100000E-09 .
  | Verify using the multipole_threshold keyword.
  Defaulting to new monopole extrapolation.
  Density update method: automatic selection selected.
  Using density matrix based charge density update.
  Using density matrix based charge density update.
  Using packed matrix style: index .
  Threshold of packed matrixes:  0.000000E+00
  Geometry relaxation: A file "geometry.in.next_step" is written out by default after each step.
  | This file contains the geometry of the current relaxation step as well as
  | the current Hessian matrix needed to restart the relaxation algorithm.
  | If you do not want part or all of this information, use the keywords
  | "write_restart_geometry" or "hessian_to_restart_geometry" to switch the output off.
  Defaulting to use time-reversal symmetry for k-point grid.
  Charge integration errors on the 3D integration grid will be compensated
  by explicit normalization and distribution of residual charges.
  Use the "compensate_multipole_errors" flag to change this behaviour.
  Set 'collect_eigenvectors' to be '.true.' for all serial calculations. This is mandatory.
  Set 'collect_eigenvectors' to be '.true.' for KS_method lapack_fast and serial.
  Found potential conflicts with setting 'use_local_index' for this calculation. Will not set it.

  Consistency checks for the contents of geometry.in are next.


  Range separation radius for Ewald summation (hartree_convergence_parameter):      3.27312006 bohr.
  Number of empty states per atom not set in control.in - providing a guess from actual geometry.
  | Total number of empty states used during s.c.f. cycle:        8
  If you use a very high smearing, use empty_states (per atom!) in control.in to increase this value.

  Structure-dependent array size parameters: 
  | Maximum number of distinct radial functions  :       12
  | Maximum number of basis functions            :       40
  | Number of Kohn-Sham states (occupied + empty):       18
------------------------------------------------------------

  Checking k-grid inconsistencies now:
  | k-point density for reciprocal lattice vector 1 is    1.57 nkpts / Angstrom^-1
  | k-point density for reciprocal lattice vector 2 is    1.78 nkpts / Angstrom^-1
  | k-point density for reciprocal lattice vector 3 is    1.98 nkpts / Angstrom^-1

  | Ratio of k-point densities for reciprocal lattice vectors 1 vs 2 is    0.88
  | Ratio of k-point densities for reciprocal lattice vectors 1 vs 3 is    0.79
  | Ratio of k-point densities for reciprocal lattice vectors 2 vs 3 is    0.90

  * The specified k_grid leads to a nearly homogenous k-grid density in non-vacuum directions,
  * and seems sensible.

  | Checks passed.
  After read_input_data [GB]:     22.45

  Performing system and environment tests:
  | Environment variable OMP_NUM_THREADS correctly set to 1.
  | Checking for ScaLAPACK...
  | Testing pdtran()...
  | All pdtran() tests passed.
  | Testing CPU compatibility for run-time vs. build-time.
  | Reading /proc/cpuinfo for CPU information ...
  | Built for  : Intel(R) Core(TM) i9-10900KF CPU @ 3.70GHz
  | Running on : Intel(R) Core(TM) i9-10900KF CPU @ 3.70GHz
  | Runtime CPU compatibility verified.
  
  After prepare_system [GB]:     22.43

------------------------------------------------------------
          Preparing all fixed parts of the calculation.
------------------------------------------------------------
  Determining machine precision:
     2.2250738585072014E-308
  Setting up grids for atomic and cluster calculations.

  Creating wave function, potential, and density for free atoms.
  Runtime choices for atomic solver:
  | atomic solver xc        : PBE
  | compute density gradient: 1
  | compute kinetic density : F

  Species: S

  List of occupied orbitals and eigenvalues:
    n    l              occ      energy [Ha]    energy [eV]
    1    0           2.0000       -88.678258     -2413.0582
    2    0           2.0000        -7.779365      -211.6873
    3    0           2.0000        -0.631865       -17.1939
    2    1           6.0000        -5.749610      -156.4549
    3    1           4.0000        -0.255301        -6.9471


  Species: H

  List of occupied orbitals and eigenvalues:
    n    l              occ      energy [Ha]    energy [eV]
    1    0           1.0000        -0.237593        -6.4652


  Adding cutoff potential to free-atom effective potential.
  Creating fixed part of basis set: Ionic, confined, hydrogenic.

  S                    ion:

  List of free ionic orbitals and eigenvalues:
    n    l      energy [Ha]    energy [eV]
    1    0       -89.703778     -2440.9640
    2    0        -8.775428      -238.7916
    3    0        -1.470343       -40.0101
    2    1        -6.747660      -183.6132
    3    1        -1.048627       -28.5346


  List of ionic basis orbitals and eigenvalues:
    n    l      energy [Ha]    energy [eV]    outer radius [A]
    3    2        -0.495221       -13.4756       4.539062
    3    0        -1.470325       -40.0096       3.642502


  S                    hydrogenic:

  List of hydrogenic basis orbitals: 
    n    l      effective z      eigenvalue [eV]  inner max. [A]     outer max. [A]     outer radius [A]   
    2    1         1.800000       -10.9749           1.168531           1.168531           4.594893
    4    3         7.000000       -41.6658           1.212182           1.212182           4.539062


  H                    hydrogenic:

  List of hydrogenic basis orbitals: 
    n    l      effective z      eigenvalue [eV]  inner max. [A]     outer max. [A]     outer radius [A]   
    2    0         2.100000       -14.9728           0.193243           1.317208           4.583499
    2    1         3.500000       -41.6669           0.602369           0.602369           3.723403

  Creating atomic-like basis functions for current effective potential.

  Species S                   :

  List of atomic basis orbitals and eigenvalues:
    n    l      energy [Ha]    energy [eV]    outer radius [A]
    1    0       -88.678258     -2413.0582       0.682391
    2    0        -7.779365      -211.6873       2.289014
    3    0        -0.631865       -17.1939       4.483910
    2    1        -5.749610      -156.4549       2.555240
    3    1        -0.255301        -6.9471       4.539062


  Species H                   :

  List of atomic basis orbitals and eigenvalues:
    n    l      energy [Ha]    energy [eV]    outer radius [A]
    1    0        -0.237593        -6.4652       4.527807

  Assembling full basis from fixed parts.
  | Species S :   atomic orbital   1 s accepted.
  | Species S :   atomic orbital   2 s accepted.
  | Species S :    ionic orbital   3 s accepted.
  | Species S :   atomic orbital   3 s accepted.
  | Species S :   atomic orbital   2 p accepted.
  | Species S :   atomic orbital   3 p accepted.
  | Species S :    hydro orbital   2 p accepted.
  | Species S :    ionic orbital   3 d accepted.
  | Species S :    hydro orbital   4 f accepted.
  | Species H :   atomic orbital   1 s accepted.
  | Species H :    hydro orbital   2 s accepted.
  | Species H :    hydro orbital   2 p accepted.

  Basis size parameters after reduction:
  | Total number of radial functions:       12
  | Total number of basis functions :       40

  Per-task memory consumption for arrays in subroutine allocate_ext:
  |           4.170560MB.
  Testing on-site integration grid accuracy.
  |  Species  Function  <phi|h_atom|phi> (log., in eV)  <phi|h_atom|phi> (rad., in eV)
           1        1              -2413.0581659109              -2413.0570554886
           1        2               -211.6872814127               -211.6872738937
           1        3                -16.9208611991                -16.9208255642
           1        4                  7.5845503345                  7.5614252779
           1        5               -156.4548540501               -156.4548540107
           1        6                 -6.9485729304                 -6.9508389945
           1        7                  7.5803076288                  7.5258504832 ***
           1        8                  6.1173006980                  6.1127563631
           1        9                 24.7512183535                 24.7503558869
           2       10                 -6.4664147733                 -6.4652229287
           2       11                 13.7099062243                 13.7158503352
           2       12                 25.2661739479                 25.2663166526
 * Note: Onsite integrals marked "***" above are less accurate than
 * onsite_accuracy_threshold =    0.03000 eV. Usually, this is harmless.
 * When in doubt, tighten the "radial" and/or "radial_multiplier" flags to check.

  Preparing densities etc. for the partition functions (integrals / Hartree potential).

  Preparations completed.
  max(cpu_time)          :      0.117 s.
  Wall clock time (cpu1) :      0.117 s.
------------------------------------------------------------
  After prepare_scf [GB]:     22.16

  Initializing index lists of integration centers etc. from given atomic structure:
  Mapping all atomic coordinates to central unit cell.

  Initializing the k-points
  Using symmetry for reducing the k-points
  | k-points reduced from:       27 to       14
  | Number of k-points                             :        14
  The eigenvectors in the calculations are COMPLEX.
  | K-points in task   0:         1
  | K-points in task   1:         2
  | K-points in task   2:         2
  | K-points in task   3:         2
  | K-points in task   4:         2
  | K-points in task   5:         2
  | K-points in task   6:         2
  | K-points in task   7:         1
  | Number of basis functions in the Hamiltonian integrals       :      1099
  | Number of basis functions in a single unit cell              :        40
  | Number of centers in hartree potential                       :       965
  | Number of centers in hartree multipole                       :       566
  | Number of centers in electron density summation              :       380
  | Number of centers in basis integrals                         :       416
  | Number of centers in integrals                               :       153
  | Number of centers in hamiltonian                             :       380
  | Number of centers in partition table from touching 0-cell    :       153
  | Number of centers in partition table total                   :       416
  | Consuming         26 KiB for k_phase.
  | Number of super-cells (origin) [n_cells]                     :        1089
  | Number of super-cells (after PM_index) [n_cells]             :         120
  | Number of super-cells in hamiltonian [n_cells_in_hamiltonian]:         120
  | Size of matrix packed + index [n_hamiltonian_matrix_size]    :       43633
  After initialize_bc_dependent_lists [GB]:     22.16

------------------------------------------------------------
          Begin self-consistency loop: Initialization.

          Date     :  20260302, Time     :  015210.079
------------------------------------------------------------

  Initializing relaxation algorithms.
  Finished initialization of distributed Hessian storage.
  | Global dimension:        21
  | BLACS block size:         3
  | Number of workers:        7

  Available memory per node after initialize_hartree_non_periodic_ewald [GB]:     22.16
  | Estimated reciprocal-space cutoff momentum G_max:         2.87564316 bohr^-1 .
  | Reciprocal lattice points for long-range Hartree potential:     144
  Available memory per node after initialize_recip_hartree_potential [GB]:     22.16
  Available memory per node after initialize_scalapack [GB]:     22.16
  Available memory per node after aims_elsi_init_scf [GB]:     22.16
  Available memory per node after initialize_fixed_grids [GB]:     22.16
  Partitioning the integration grid into batches with parallel hashing+maxmin method.
  | Number of batches:      256
  | Maximal batch size:      99
  | Minimal batch size:      81
  | Average batch size:      90.109
  | Standard deviation of batch sizes:       4.897

  Integration load balanced across     8 MPI tasks.
  Work distribution over tasks is as follows:
  Task     0 has       2836 integration points.
  Task     1 has       2873 integration points.
  Task     2 has       2885 integration points.
  Task     3 has       2883 integration points.
  Task     4 has       2872 integration points.
  Task     5 has       2895 integration points.
  Task     6 has       2894 integration points.
  Task     7 has       2930 integration points.
  Available memory per node after partition_grid [GB]:     22.16
  Initializing partition tables, free-atom densities, potentials, etc. across the integration grid (initialize_grid_storage).
  | initialize_grid_storage: Actual outermost partition radius vs. multipole_radius_free
  | (-- VB: in principle, multipole_radius_free should be larger, hence this output)
  | Species        1: Confinement radius =              4.999999999999999 AA, multipole_radius_free =              5.005414751018925 AA.
  | Species        1: outer_partition_radius set to              5.005414751018925 AA .
  | Species        2: Confinement radius =              4.999999999999999 AA, multipole_radius_free =              5.054417573612229 AA.
  | Species        2: outer_partition_radius set to              5.054417573612229 AA .
  | The sparse table of interatomic distances needs        846.90 kbyte instead of      1384.45 kbyte of memory.
  | Net number of integration points:    23068
  | of which are non-zero points    :    19414
  | Numerical average free-atom electrostatic potential    :     -6.63784556 eV
  Available memory per node after initialize_grid_storage_p1 [GB]:     22.16
  Renormalizing the initial density to the exact electron count on the 3D integration grid.
  | Initial density: Formal number of electrons (from input files) :      19.0000000000
  | Integrated number of electrons on 3D grid     :      19.0001125116
  | Charge integration error                      :       0.0001125116
  | Normalization factor for density and gradient :       0.9999940784
  Renormalizing the free-atom superposition density to the exact electron count on the 3D integration grid.
  | Formal number of electrons (from input files) :      19.0000000000
  | Integrated number of electrons on 3D grid     :      19.0001125116
  | Charge integration error                      :       0.0001125116
  | Normalization factor for density and gradient :       0.9999940784
  Obtaining max. number of non-zero basis functions in each batch (get_n_compute_maxes).
  | Maximal number of non-zero basis functions:      400 in task     0
  | Maximal number of non-zero basis functions:      388 in task     1
  | Maximal number of non-zero basis functions:      390 in task     2
  | Maximal number of non-zero basis functions:      402 in task     3
  | Maximal number of non-zero basis functions:      389 in task     4
  | Maximal number of non-zero basis functions:      399 in task     5
  | Maximal number of non-zero basis functions:      391 in task     6
  | Maximal number of non-zero basis functions:      392 in task     7
  Available memory per node after get_n_compute_maxes_p1 [GB]:     22.16
  Allocating        0.011 MB for KS_eigenvector_complex
  Available memory per node after allocate_matrices [GB]:     22.16
  Available memory per node after init_comm_sparse_local_matrix_scalapack [GB]:     22.16
  Integrating Hamiltonian matrix: batch-based integration.
  Time summed over all CPUs for integration: real work        0.392 s, elapsed        0.401 s
  Available memory per node after integrate hamiltonian matrix [GB]:     22.15
  Integrating overlap matrix.
  Time summed over all CPUs for integration: real work        0.220 s, elapsed        0.226 s
  Available memory per node after integrate ovlp matrix [GB]:     22.15
  Available memory per node after ASI_callbacks invoke [GB]:     22.15
  Available memory per node after save_overlap_scalapack [GB]:     22.15

  Updating Kohn-Sham eigenvalues and eigenvectors using ELSI and the (modified) LAPACK eigensolver.
  Singularity check in k-point 8, task 0 (analysis for other k-points/tasks may follow below):
  Overlap matrix is not singular
  | Lowest and highest eigenvalues :  0.1228E-01,  0.4495E+01
  Finished singularity check of overlap matrix
  | Time :     0.001 s
  Starting LAPACK eigensolver
  Finished Cholesky decomposition
  | Time :     0.000 s
  Finished transformation to standard eigenproblem
  | Time :     0.000 s
  Finished solving standard eigenproblem
  | Time :     0.000 s
  Finished back-transformation of eigenvectors
  | Time :     0.000 s

  Obtaining occupation numbers and electronic chemical potential using ELSI.
  | Note that, for insulating systems, the printed 'chemical potential' value is not uniquely defined.
  | It can be anywhere in the energy gap, as long as it correctly separates occupied and unoccupied states.
  | In systems with a gap, the physically relevant chemical potential is the VBM or HOMO.

  | Chemical potential (Fermi level):    -6.16859498 eV
  Available memory per node after advance_KS_solution [GB]:     22.15
  Writing Kohn-Sham eigenvalues.
  K-point:       1 at    0.000000    0.000000    0.000000 (in units of recip. lattice)

  State    Occupation    Eigenvalue [Ha]    Eigenvalue [eV]
      1       2.00000         -88.680260        -2413.11265
      2       2.00000          -7.781738         -211.75186
      3       2.00000          -5.752137         -156.52361
      4       2.00000          -5.751910         -156.51744
      5       2.00000          -5.751797         -156.51435
      6       2.00000          -0.678055          -18.45082
      7       2.00000          -0.408690          -11.12103
      8       2.00000          -0.287566           -7.82506
      9       2.00000          -0.244837           -6.66235
     10      -0.04927          -0.223034           -6.06906
     11      -0.00000          -0.179958           -4.89690
     12       0.00000           0.010741            0.29228
     13       0.00000           0.110877            3.01713
     14       0.00000           0.154075            4.19259
     15       0.00000           0.277769            7.55849
     16       0.00000           0.289224            7.87019
     17       0.00000           0.297525            8.09607
     18       0.00000           0.302316            8.22643

  What follows are estimated values for band gap, HOMO, LUMO, etc.
  | They are estimated on a discrete k-point grid and not necessarily exact.
  | For converged numbers, create a DOS and/or band structure plot on a denser k-grid.

  Highest occupied state (VBM) at     -6.25384683 eV (relative to internal zero)
  | Occupation number:      2.00458023
  | K-point:       6 at    0.333333    0.000000    0.000000 (in units of recip. lattice)

  Lowest unoccupied state (CBM) at    -6.15466242 eV (relative to internal zero)
  | Occupation number:      0.76670429
  | K-point:       8 at    0.333333    0.000000    0.666667 (in units of recip. lattice)

  This system has fractional occupation numbers. Since we use a finite k-point grid,
  this material is metallic within the approximate finite broadening function (occupation_type)
  applied to determine the occupation numbers. We conclude: there is no gap in this system.
  ESTIMATED overall HOMO-LUMO gap:      0.00000000 eV.
  Calculating total energy contributions from superposition of free atom densities.

  Total energy components:
  | Sum of eigenvalues            :        -230.97310475 Ha       -6285.09796263 eV
  | XC energy correction          :         -26.40044392 Ha        -718.39263044 eV
  | XC potential correction       :          34.11722296 Ha         928.37687207 eV
  | Free-atom electrostatic energy:        -178.07353185 Ha       -4845.62734440 eV
  | Hartree energy correction     :          -0.00000000 Ha          -0.00000000 eV
  | Entropy correction            :          -0.00025493 Ha          -0.00693713 eV
  | ---------------------------
  | Total energy                  :        -401.32985756 Ha      -10920.74106540 eV
  | Total energy, T -> 0          :        -401.33019747 Ha      -10920.75031491 eV  <-- do not rely on this value for anything but (periodic) metals
  | Electronic free energy        :        -401.33036743 Ha      -10920.75493967 eV

  Derived energy quantities:
  | Kinetic energy                :         402.46515985 Ha       10951.63421252 eV
  | Electrostatic energy          :        -777.39457349 Ha      -21153.98264748 eV
  | Energy correction for multipole
  | error in Hartree potential    :           0.00000000 Ha           0.00000000 eV
  | Sum of eigenvalues per atom                           :       -1571.27449066 eV
  | Total energy (T->0) per atom                          :       -2730.18757873 eV  <-- do not rely on this value for anything but (periodic) metals
  | Electronic free energy per atom                       :       -2730.18873492 eV
  Initialize hartree_potential_storage
  Max. number of atoms included in rho_multipole:            4

  End scf initialization - timings             :  max(cpu_time)    wall_clock(cpu1)
  | Time for scf. initialization                :        0.231 s           0.231 s
  | Boundary condition initialization           :        0.012 s           0.012 s
  | Relaxation initialization                   :        0.001 s           0.001 s
  | Integration                                 :        0.080 s           0.079 s
  | Solution of K.-S. eqns.                     :        0.002 s           0.002 s
  | Grid partitioning                           :        0.014 s           0.014 s
  | Preloading free-atom quantities on grid     :        0.125 s           0.125 s
  | Free-atom superposition energy              :        0.010 s           0.010 s
  | Total energy evaluation                     :        0.000 s           0.000 s

  Partial memory accounting:
  | Current value for overall tracked memory usage:
  |   Minimum:        0.883 MB (on task 7)
  |   Maximum:        0.895 MB (on task 1)
  |   Average:        0.892 MB
  | Peak value for overall tracked memory usage:
  |   Minimum:        2.931 MB (on task 1 after allocating wave)
  |   Maximum:        3.048 MB (on task 3 after allocating wave)
  |   Average:        2.977 MB
  | Largest tracked array allocation so far:
  |   Minimum:        1.149 MB (hamiltonian_shell on task 1)
  |   Maximum:        1.233 MB (hamiltonian_shell on task 3)
  |   Average:        1.184 MB
  Note:  These values currently only include a subset of arrays which are explicitly tracked.
  The "true" memory usage will be greater.
------------------------------------------------------------
  Available memory after initialize_scf [GB]:     22.15
  Available memory after allocating mixing [GB]:     22.15
  Evaluating new KS density using the density matrix
  Evaluating density matrix
  Time summed over all CPUs for getting density from density matrix: real work        0.716 s, elapsed        0.730 s
  Integration grid: deviation in total charge (<rho> - N_e) =  -3.197442E-14

  Time for density update prior                :  max(cpu_time)    wall_clock(cpu1)
  | self-consistency iterative process          :        0.092 s           0.092 s
  Available memory before start of SCF loop [GB]:     22.14

------------------------------------------------------------
          Begin self-consistency iteration #    1

  Date     :  20260302, Time     :  015210.402
------------------------------------------------------------
  Pulay mixing of updated and previous charge densities.
  Available memory per node after mixing [GB]:     22.14
  Renormalizing the density to the exact electron count on the 3D integration grid.
  | Formal number of electrons (from input files) :      19.0000000000
  | Integrated number of electrons on 3D grid     :      19.0000000000
  | Charge integration error                      :       0.0000000000
  | Normalization factor for density and gradient :       1.0000000000

  Evaluating partitioned Hartree potential by multipole expansion.
  | Original multipole sum: apparent total charge =   0.218413E-13
  | Sum of charges compensated after spline to logarithmic grids =  -0.119032E-05
  | Analytical far-field extrapolation by fixed multipoles:
  | Hartree multipole sum: apparent total charge =   0.218501E-13
  Summing up the Hartree potential.
  Time summed over all CPUs for potential: real work        0.020 s, elapsed        0.020 s
  | RMS charge density error from multipole expansion :   0.531973E-04
  | Average real-space part of the electrostatic potential :     -0.00104852 eV

  Integrating Hamiltonian matrix: batch-based integration.
  Time summed over all CPUs for integration: real work        0.381 s, elapsed        0.392 s

  Updating Kohn-Sham eigenvalues and eigenvectors using ELSI and the (modified) LAPACK eigensolver.
  Starting LAPACK eigensolver
  Finished Cholesky decomposition
  | Time :     0.000 s
  Finished transformation to standard eigenproblem
  | Time :     0.000 s
  Finished solving standard eigenproblem
  | Time :     0.001 s
  Finished back-transformation of eigenvectors
  | Time :     0.000 s

  Obtaining occupation numbers and electronic chemical potential using ELSI.
  | Note that, for insulating systems, the printed 'chemical potential' value is not uniquely defined.
  | It can be anywhere in the energy gap, as long as it correctly separates occupied and unoccupied states.
  | In systems with a gap, the physically relevant chemical potential is the VBM or HOMO.

  | Chemical potential (Fermi level):    -6.15412589 eV
  Writing Kohn-Sham eigenvalues.
  K-point:       1 at    0.000000    0.000000    0.000000 (in units of recip. lattice)

  State    Occupation    Eigenvalue [Ha]    Eigenvalue [eV]
      1       2.00000         -88.679702        -2413.09747
      2       2.00000          -7.781178         -211.73661
      3       2.00000          -5.751579         -156.50842
      4       2.00000          -5.751415         -156.50398
      5       2.00000          -5.751170         -156.49729
      6       2.00000          -0.677684          -18.44071
      7       2.00000          -0.408884          -11.12630
      8       2.00000          -0.287249           -7.81645
      9       2.00000          -0.244355           -6.64924
     10      -0.03523          -0.222708           -6.06020
     11      -0.00000          -0.180558           -4.91324
     12       0.00000           0.010699            0.29113
     13       0.00000           0.111108            3.02340
     14       0.00000           0.154218            4.19649
     15       0.00000           0.278159            7.56910
     16       0.00000           0.289116            7.86723
     17       0.00000           0.297616            8.09854
     18       0.00000           0.302620            8.23472

  What follows are estimated values for band gap, HOMO, LUMO, etc.
  | They are estimated on a discrete k-point grid and not necessarily exact.
  | For converged numbers, create a DOS and/or band structure plot on a denser k-grid.

  Highest occupied state (VBM) at     -6.23999215 eV (relative to internal zero)
  | Occupation number:      2.00714082
  | K-point:       6 at    0.333333    0.000000    0.000000 (in units of recip. lattice)

  Lowest unoccupied state (CBM) at    -6.14048268 eV (relative to internal zero)
  | Occupation number:      0.77144872
  | K-point:       7 at    0.333333    0.000000    0.333333 (in units of recip. lattice)

  This system has fractional occupation numbers. Since we use a finite k-point grid,
  this material is metallic within the approximate finite broadening function (occupation_type)
  applied to determine the occupation numbers. We conclude: there is no gap in this system.
  ESTIMATED overall HOMO-LUMO gap:      0.00000000 eV.

  Total energy components:
  | Sum of eigenvalues            :        -230.96589683 Ha       -6284.90182494 eV
  | XC energy correction          :         -26.40027574 Ha        -718.38805403 eV
  | XC potential correction       :          34.11704643 Ha         928.37206851 eV
  | Free-atom electrostatic energy:        -178.07353185 Ha       -4845.62734440 eV
  | Hartree energy correction     :          -0.00700560 Ha          -0.19063220 eV
  | Entropy correction            :          -0.00025234 Ha          -0.00686654 eV
  | ---------------------------
  | Total energy                  :        -401.32966358 Ha      -10920.73578706 eV
  | Total energy, T -> 0          :        -401.33000004 Ha      -10920.74494245 eV  <-- do not rely on this value for anything but (periodic) metals
  | Electronic free energy        :        -401.33016827 Ha      -10920.74952015 eV

  Derived energy quantities:
  | Kinetic energy                :         402.46374123 Ha       10951.59560986 eV
  | Electrostatic energy          :        -777.39312907 Ha      -21153.94334290 eV
  | Energy correction for multipole
  | error in Hartree potential    :           0.00000645 Ha           0.00017559 eV
  | Sum of eigenvalues per atom                           :       -1571.22545624 eV
  | Total energy (T->0) per atom                          :       -2730.18623561 eV  <-- do not rely on this value for anything but (periodic) metals
  | Electronic free energy per atom                       :       -2730.18738004 eV
  Evaluating new KS density using the density matrix
  Evaluating density matrix
  Time summed over all CPUs for getting density from density matrix: real work        0.709 s, elapsed        0.726 s
  Integration grid: deviation in total charge (<rho> - N_e) =  -2.131628E-14

  Self-consistency convergence accuracy:
  | Change of charge density      :  0.6024E-01
  | Change of unmixed KS density  :  0.2888E+02
  | Change of sum of eigenvalues  :  0.1961E+00 eV
  | Change of total energy        :  0.5278E-02 eV


------------------------------------------------------------
  End self-consistency iteration #     1       :  max(cpu_time)    wall_clock(cpu1)
  | Time for this iteration                     :        0.165 s           0.165 s
  | Charge density update                       :        0.091 s           0.092 s
  | Density mixing                              :        0.000 s           0.000 s
  | Hartree multipole update                    :        0.000 s           0.001 s
  | Hartree multipole summation                 :        0.022 s           0.022 s
  | Integration                                 :        0.050 s           0.049 s
  | Solution of K.-S. eqns.                     :        0.001 s           0.001 s
  | Total energy evaluation                     :        0.000 s           0.000 s

  Partial memory accounting:
  | Current value for overall tracked memory usage:
  |   Minimum:        2.809 MB (on task 0)
  |   Maximum:        2.873 MB (on task 7)
  |   Average:        2.850 MB
  | Peak value for overall tracked memory usage:
  |   Minimum:        5.752 MB (on task 1 after allocating gradient_basis_wave)
  |   Maximum:        5.907 MB (on task 3 after allocating gradient_basis_wave)
  |   Average:        5.819 MB
  | Largest tracked array allocation so far:
  |   Minimum:        1.149 MB (hamiltonian_shell on task 1)
  |   Maximum:        1.233 MB (hamiltonian_shell on task 3)
  |   Average:        1.184 MB
  Note:  These values currently only include a subset of arrays which are explicitly tracked.
  The "true" memory usage will be greater.
------------------------------------------------------------

------------------------------------------------------------
          Begin self-consistency iteration #    2

  Date     :  20260302, Time     :  015210.567
------------------------------------------------------------
  Pulay mixing of updated and previous charge densities.
  Available memory per node after mixing [GB]:     22.14
  Renormalizing the density to the exact electron count on the 3D integration grid.
  | Formal number of electrons (from input files) :      19.0000000000
  | Integrated number of electrons on 3D grid     :      19.0000000000
  | Charge integration error                      :      -0.0000000000
  | Normalization factor for density and gradient :       1.0000000000

  Evaluating partitioned Hartree potential by multipole expansion.
  | Original multipole sum: apparent total charge =  -0.167142E-13
  | Sum of charges compensated after spline to logarithmic grids =  -0.234600E-04
  | Analytical far-field extrapolation by fixed multipoles:
  | Hartree multipole sum: apparent total charge =  -0.168802E-13
  Summing up the Hartree potential.
  Time summed over all CPUs for potential: real work        0.023 s, elapsed        0.024 s
  | RMS charge density error from multipole expansion :   0.103266E-02
  | Average real-space part of the electrostatic potential :     -0.02054074 eV

  Integrating Hamiltonian matrix: batch-based integration.
  Time summed over all CPUs for integration: real work        0.383 s, elapsed        0.407 s

  Updating Kohn-Sham eigenvalues and eigenvectors using ELSI and the (modified) LAPACK eigensolver.
  Starting LAPACK eigensolver
  Finished Cholesky decomposition
  | Time :     0.000 s
  Finished transformation to standard eigenproblem
  | Time :     0.000 s
  Finished solving standard eigenproblem
  | Time :     0.000 s
  Finished back-transformation of eigenvectors
  | Time :     0.000 s

  Obtaining occupation numbers and electronic chemical potential using ELSI.
  | Note that, for insulating systems, the printed 'chemical potential' value is not uniquely defined.
  | It can be anywhere in the energy gap, as long as it correctly separates occupied and unoccupied states.
  | In systems with a gap, the physically relevant chemical potential is the VBM or HOMO.

  | Chemical potential (Fermi level):    -6.10408128 eV
  What follows are estimated values for band gap, HOMO, LUMO, etc.
  | They are estimated on a discrete k-point grid and not necessarily exact.
  | For converged numbers, create a DOS and/or band structure plot on a denser k-grid.

  Highest occupied state (VBM) at     -6.27355889 eV (relative to internal zero)
  | Occupation number:      2.03755132
  | K-point:       2 at    0.000000    0.000000    0.333333 (in units of recip. lattice)

  Lowest unoccupied state (CBM) at    -6.09806436 eV (relative to internal zero)
  | Occupation number:      0.89836406
  | K-point:      14 at    0.666667    0.666667    0.333333 (in units of recip. lattice)

  This system has fractional occupation numbers. Since we use a finite k-point grid,
  this material is metallic within the approximate finite broadening function (occupation_type)
  applied to determine the occupation numbers. We conclude: there is no gap in this system.
  ESTIMATED overall HOMO-LUMO gap:      0.00000000 eV.

  Checking to see if s.c.f. parameters should be adjusted.

  Total energy components:
  | Sum of eigenvalues            :        -230.84815589 Ha       -6281.69793109 eV
  | XC energy correction          :         -26.39712419 Ha        -718.30229602 eV
  | XC potential correction       :          34.11368328 Ha         928.28055248 eV
  | Free-atom electrostatic energy:        -178.07353185 Ha       -4845.62734440 eV
  | Hartree energy correction     :          -0.12487265 Ha          -3.39795779 eV
  | Entropy correction            :          -0.00050970 Ha          -0.01386978 eV
  | ---------------------------
  | Total energy                  :        -401.33000130 Ha      -10920.74497683 eV
  | Total energy, T -> 0          :        -401.33068091 Ha      -10920.76346986 eV  <-- do not rely on this value for anything but (periodic) metals
  | Electronic free energy        :        -401.33102071 Ha      -10920.77271638 eV

  Derived energy quantities:
  | Kinetic energy                :         402.42731378 Ha       10950.60436870 eV
  | Electrostatic energy          :        -777.36019090 Ha      -21153.04704950 eV
  | Energy correction for multipole
  | error in Hartree potential    :           0.00012438 Ha           0.00338460 eV
  | Sum of eigenvalues per atom                           :       -1570.42448277 eV
  | Total energy (T->0) per atom                          :       -2730.19086746 eV  <-- do not rely on this value for anything but (periodic) metals
  | Electronic free energy per atom                       :       -2730.19317909 eV
  Evaluating new KS density using the density matrix
  Evaluating density matrix
  Time summed over all CPUs for getting density from density matrix: real work        0.708 s, elapsed        0.725 s
  Integration grid: deviation in total charge (<rho> - N_e) =  -6.750156E-14

  Self-consistency convergence accuracy:
  | Change of charge density      :  0.5783E-01
  | Change of unmixed KS density  :  0.1829E-02
  | Change of sum of eigenvalues  :  0.3204E+01 eV
  | Change of total energy        : -0.9190E-02 eV


------------------------------------------------------------
  End self-consistency iteration #     2       :  max(cpu_time)    wall_clock(cpu1)
  | Time for this iteration                     :        0.170 s           0.170 s
  | Charge density update                       :        0.091 s           0.091 s
  | Density mixing                              :        0.000 s           0.000 s
  | Hartree multipole update                    :        0.000 s           0.001 s
  | Hartree multipole summation                 :        0.025 s           0.025 s
  | Integration                                 :        0.051 s           0.052 s
  | Solution of K.-S. eqns.                     :        0.001 s           0.001 s
  | Total energy evaluation                     :        0.000 s           0.000 s

  Partial memory accounting:
  | Current value for overall tracked memory usage:
  |   Minimum:        2.810 MB (on task 0)
  |   Maximum:        2.874 MB (on task 7)
  |   Average:        2.851 MB
  | Peak value for overall tracked memory usage:
  |   Minimum:        5.753 MB (on task 1 after allocating gradient_basis_wave)
  |   Maximum:        5.908 MB (on task 3 after allocating gradient_basis_wave)
  |   Average:        5.820 MB
  | Largest tracked array allocation so far:
  |   Minimum:        1.149 MB (hamiltonian_shell on task 1)
  |   Maximum:        1.233 MB (hamiltonian_shell on task 3)
  |   Average:        1.184 MB
  Note:  These values currently only include a subset of arrays which are explicitly tracked.
  The "true" memory usage will be greater.
------------------------------------------------------------

------------------------------------------------------------
          Begin self-consistency iteration #    3

  Date     :  20260302, Time     :  015210.737
------------------------------------------------------------
  Pulay mixing of updated and previous charge densities.
  Available memory per node after mixing [GB]:     22.14
  Renormalizing the density to the exact electron count on the 3D integration grid.
  | Formal number of electrons (from input files) :      19.0000000000
  | Integrated number of electrons on 3D grid     :      19.0000000000
  | Charge integration error                      :       0.0000000000
  | Normalization factor for density and gradient :       1.0000000000

  Evaluating partitioned Hartree potential by multipole expansion.
  | Original multipole sum: apparent total charge =  -0.165420E-14
  | Sum of charges compensated after spline to logarithmic grids =  -0.224853E-04
  | Analytical far-field extrapolation by fixed multipoles:
  | Hartree multipole sum: apparent total charge =  -0.170954E-14
  Summing up the Hartree potential.
  Time summed over all CPUs for potential: real work        0.023 s, elapsed        0.024 s
  | RMS charge density error from multipole expansion :   0.987573E-03
  | Average real-space part of the electrostatic potential :     -0.01965235 eV

  Integrating Hamiltonian matrix: batch-based integration.
  Time summed over all CPUs for integration: real work        0.382 s, elapsed        0.392 s

  Updating Kohn-Sham eigenvalues and eigenvectors using ELSI and the (modified) LAPACK eigensolver.
  Starting LAPACK eigensolver
  Finished Cholesky decomposition
  | Time :     0.000 s
  Finished transformation to standard eigenproblem
  | Time :     0.000 s
  Finished solving standard eigenproblem
  | Time :     0.000 s
  Finished back-transformation of eigenvectors
  | Time :     0.000 s

  Obtaining occupation numbers and electronic chemical potential using ELSI.
  | Note that, for insulating systems, the printed 'chemical potential' value is not uniquely defined.
  | It can be anywhere in the energy gap, as long as it correctly separates occupied and unoccupied states.
  | In systems with a gap, the physically relevant chemical potential is the VBM or HOMO.

  | Chemical potential (Fermi level):    -6.09743772 eV
  What follows are estimated values for band gap, HOMO, LUMO, etc.
  | They are estimated on a discrete k-point grid and not necessarily exact.
  | For converged numbers, create a DOS and/or band structure plot on a denser k-grid.

  Highest occupied state (VBM) at     -6.28651816 eV (relative to internal zero)
  | Occupation number:      2.02238664
  | K-point:       2 at    0.000000    0.000000    0.333333 (in units of recip. lattice)

  Lowest unoccupied state (CBM) at    -6.09130892 eV (relative to internal zero)
  | Occupation number:      0.89648197
  | K-point:      11 at    0.333333    0.666667    0.333333 (in units of recip. lattice)

  This system has fractional occupation numbers. Since we use a finite k-point grid,
  this material is metallic within the approximate finite broadening function (occupation_type)
  applied to determine the occupation numbers. We conclude: there is no gap in this system.
  ESTIMATED overall HOMO-LUMO gap:      0.00000000 eV.

  Total energy components:
  | Sum of eigenvalues            :        -230.85512819 Ha       -6281.88765711 eV
  | XC energy correction          :         -26.39716638 Ha        -718.30344408 eV
  | XC potential correction       :          34.11370275 Ha         928.28108218 eV
  | Free-atom electrostatic energy:        -178.07353185 Ha       -4845.62734440 eV
  | Hartree energy correction     :          -0.11761278 Ha          -3.20040654 eV
  | Entropy correction            :          -0.00052449 Ha          -0.01427221 eV
  | ---------------------------
  | Total energy                  :        -401.32973645 Ha      -10920.73776995 eV
  | Total energy, T -> 0          :        -401.33043578 Ha      -10920.75679956 eV  <-- do not rely on this value for anything but (periodic) metals
  | Electronic free energy        :        -401.33078544 Ha      -10920.76631437 eV

  Derived energy quantities:
  | Kinetic energy                :         402.42854167 Ha       10950.63778109 eV
  | Electrostatic energy          :        -777.36111174 Ha      -21153.07210696 eV
  | Energy correction for multipole
  | error in Hartree potential    :           0.00011875 Ha           0.00323146 eV
  | Sum of eigenvalues per atom                           :       -1570.47191428 eV
  | Total energy (T->0) per atom                          :       -2730.18919989 eV  <-- do not rely on this value for anything but (periodic) metals
  | Electronic free energy per atom                       :       -2730.19157859 eV
  Evaluating new KS density using the density matrix
  Evaluating density matrix
  Time summed over all CPUs for getting density from density matrix: real work        0.706 s, elapsed        0.727 s
  Integration grid: deviation in total charge (<rho> - N_e) =  -7.460699E-14

  Self-consistency convergence accuracy:
  | Change of charge density      :  0.6099E-01
  | Change of unmixed KS density  :  0.8173E-01
  | Change of sum of eigenvalues  : -0.1897E+00 eV
  | Change of total energy        :  0.7207E-02 eV


------------------------------------------------------------
  End self-consistency iteration #     3       :  max(cpu_time)    wall_clock(cpu1)
  | Time for this iteration                     :        0.168 s           0.169 s
  | Charge density update                       :        0.091 s           0.092 s
  | Density mixing                              :        0.001 s           0.001 s
  | Hartree multipole update                    :        0.000 s           0.000 s
  | Hartree multipole summation                 :        0.025 s           0.025 s
  | Integration                                 :        0.050 s           0.050 s
  | Solution of K.-S. eqns.                     :        0.001 s           0.001 s
  | Total energy evaluation                     :        0.000 s           0.000 s

  Partial memory accounting:
  | Current value for overall tracked memory usage:
  |   Minimum:        2.810 MB (on task 0)
  |   Maximum:        2.874 MB (on task 7)
  |   Average:        2.851 MB
  | Peak value for overall tracked memory usage:
  |   Minimum:        5.753 MB (on task 1 after allocating gradient_basis_wave)
  |   Maximum:        5.908 MB (on task 3 after allocating gradient_basis_wave)
  |   Average:        5.820 MB
  | Largest tracked array allocation so far:
  |   Minimum:        1.149 MB (hamiltonian_shell on task 1)
  |   Maximum:        1.233 MB (hamiltonian_shell on task 3)
  |   Average:        1.184 MB
  Note:  These values currently only include a subset of arrays which are explicitly tracked.
  The "true" memory usage will be greater.
------------------------------------------------------------

------------------------------------------------------------
          Begin self-consistency iteration #    4

  Date     :  20260302, Time     :  015210.906
------------------------------------------------------------
  Pulay mixing of updated and previous charge densities.
  Available memory per node after mixing [GB]:     22.14
  Renormalizing the density to the exact electron count on the 3D integration grid.
  | Formal number of electrons (from input files) :      19.0000000000
  | Integrated number of electrons on 3D grid     :      19.0000000000
  | Charge integration error                      :       0.0000000000
  | Normalization factor for density and gradient :       1.0000000000

  Evaluating partitioned Hartree potential by multipole expansion.
  | Original multipole sum: apparent total charge =  -0.879369E-15
  | Sum of charges compensated after spline to logarithmic grids =  -0.225245E-04
  | Analytical far-field extrapolation by fixed multipoles:
  | Hartree multipole sum: apparent total charge =  -0.793277E-15
  Summing up the Hartree potential.
  Time summed over all CPUs for potential: real work        0.023 s, elapsed        0.024 s
  | RMS charge density error from multipole expansion :   0.993511E-03
  | Average real-space part of the electrostatic potential :     -0.01974913 eV

  Integrating Hamiltonian matrix: batch-based integration.
  Time summed over all CPUs for integration: real work        0.386 s, elapsed        0.399 s

  Updating Kohn-Sham eigenvalues and eigenvectors using ELSI and the (modified) LAPACK eigensolver.
  Starting LAPACK eigensolver
  Finished Cholesky decomposition
  | Time :     0.000 s
  Finished transformation to standard eigenproblem
  | Time :     0.000 s
  Finished solving standard eigenproblem
  | Time :     0.000 s
  Finished back-transformation of eigenvectors
  | Time :     0.000 s

  Obtaining occupation numbers and electronic chemical potential using ELSI.
  | Note that, for insulating systems, the printed 'chemical potential' value is not uniquely defined.
  | It can be anywhere in the energy gap, as long as it correctly separates occupied and unoccupied states.
  | In systems with a gap, the physically relevant chemical potential is the VBM or HOMO.

  | Chemical potential (Fermi level):    -6.09929510 eV
  What follows are estimated values for band gap, HOMO, LUMO, etc.
  | They are estimated on a discrete k-point grid and not necessarily exact.
  | For converged numbers, create a DOS and/or band structure plot on a denser k-grid.

  Highest occupied state (VBM) at     -6.28124872 eV (relative to internal zero)
  | Occupation number:      2.02738356
  | K-point:       2 at    0.000000    0.000000    0.333333 (in units of recip. lattice)

  Lowest unoccupied state (CBM) at    -6.09333646 eV (relative to internal zero)
  | Occupation number:      0.89934440
  | K-point:      11 at    0.333333    0.666667    0.333333 (in units of recip. lattice)

  This system has fractional occupation numbers. Since we use a finite k-point grid,
  this material is metallic within the approximate finite broadening function (occupation_type)
  applied to determine the occupation numbers. We conclude: there is no gap in this system.
  ESTIMATED overall HOMO-LUMO gap:      0.00000000 eV.

  Total energy components:
  | Sum of eigenvalues            :        -230.85116934 Ha       -6281.77993118 eV
  | XC energy correction          :         -26.39729825 Ha        -718.30703245 eV
  | XC potential correction       :          34.11388347 Ha         928.28599990 eV
  | Free-atom electrostatic energy:        -178.07353185 Ha       -4845.62734440 eV
  | Hartree energy correction     :          -0.12171829 Ha          -3.31212306 eV
  | Entropy correction            :          -0.00051756 Ha          -0.01408343 eV
  | ---------------------------
  | Total energy                  :        -401.32983425 Ha      -10920.74043120 eV
  | Total energy, T -> 0          :        -401.33052433 Ha      -10920.75920911 eV  <-- do not rely on this value for anything but (periodic) metals
  | Electronic free energy        :        -401.33086937 Ha      -10920.76859806 eV

  Derived energy quantities:
  | Kinetic energy                :         402.42956580 Ha       10950.66564917 eV
  | Electrostatic energy          :        -777.36210180 Ha      -21153.09904792 eV
  | Energy correction for multipole
  | error in Hartree potential    :           0.00011987 Ha           0.00326172 eV
  | Sum of eigenvalues per atom                           :       -1570.44498280 eV
  | Total energy (T->0) per atom                          :       -2730.18980228 eV  <-- do not rely on this value for anything but (periodic) metals
  | Electronic free energy per atom                       :       -2730.19214952 eV
  Evaluating new KS density using the density matrix
  Evaluating density matrix
  Time summed over all CPUs for getting density from density matrix: real work        0.708 s, elapsed        0.726 s
  Integration grid: deviation in total charge (<rho> - N_e) =  -5.329071E-14

  Self-consistency convergence accuracy:
  | Change of charge density      :  0.5890E-01
  | Change of unmixed KS density  :  0.1875E-02
  | Change of sum of eigenvalues  :  0.1077E+00 eV
  | Change of total energy        : -0.2661E-02 eV


------------------------------------------------------------
  End self-consistency iteration #     4       :  max(cpu_time)    wall_clock(cpu1)
  | Time for this iteration                     :        0.169 s           0.169 s
  | Charge density update                       :        0.091 s           0.091 s
  | Density mixing                              :        0.001 s           0.000 s
  | Hartree multipole update                    :        0.000 s           0.001 s
  | Hartree multipole summation                 :        0.025 s           0.025 s
  | Integration                                 :        0.050 s           0.050 s
  | Solution of K.-S. eqns.                     :        0.001 s           0.001 s
  | Total energy evaluation                     :        0.000 s           0.000 s

  Partial memory accounting:
  | Current value for overall tracked memory usage:
  |   Minimum:        2.810 MB (on task 0)
  |   Maximum:        2.874 MB (on task 7)
  |   Average:        2.851 MB
  | Peak value for overall tracked memory usage:
  |   Minimum:        5.753 MB (on task 1 after allocating gradient_basis_wave)
  |   Maximum:        5.908 MB (on task 3 after allocating gradient_basis_wave)
  |   Average:        5.820 MB
  | Largest tracked array allocation so far:
  |   Minimum:        1.149 MB (hamiltonian_shell on task 1)
  |   Maximum:        1.233 MB (hamiltonian_shell on task 3)
  |   Average:        1.184 MB
  Note:  These values currently only include a subset of arrays which are explicitly tracked.
  The "true" memory usage will be greater.
------------------------------------------------------------

------------------------------------------------------------
          Begin self-consistency iteration #    5

  Date     :  20260302, Time     :  015211.075
------------------------------------------------------------
  Pulay mixing of updated and previous charge densities.
  Available memory per node after mixing [GB]:     22.14
  Renormalizing the density to the exact electron count on the 3D integration grid.
  | Formal number of electrons (from input files) :      19.0000000000
  | Integrated number of electrons on 3D grid     :      19.0000000000
  | Charge integration error                      :       0.0000000000
  | Normalization factor for density and gradient :       1.0000000000

  Evaluating partitioned Hartree potential by multipole expansion.
  | Original multipole sum: apparent total charge =   0.553142E-14
  | Sum of charges compensated after spline to logarithmic grids =  -0.516075E-04
  | Analytical far-field extrapolation by fixed multipoles:
  | Hartree multipole sum: apparent total charge =   0.556216E-14
  Summing up the Hartree potential.
  Time summed over all CPUs for potential: real work        0.024 s, elapsed        0.025 s
  | RMS charge density error from multipole expansion :   0.184441E-02
  | Average real-space part of the electrostatic potential :     -0.03810764 eV

  Integrating Hamiltonian matrix: batch-based integration.
[...]
    'Efficient O(N) integration for all-electron electronic structure calculation'
    'using numerically tabulated basis functions'
    Journal of Computational Physics 228, 8367-8379 (2009).
    http://doi.org/10.1016/j.jcp.2009.08.008

  Of course, there are many other important community references, e.g., those cited in the
  above references. Our list is limited to references that describe implementations in the
  FHI-aims code. The reason is purely practical (length of this list) - please credit others as well.
------------------------------------------------------------
Warnings summary:

At least    2 warnings were raised during execution.

------------------------------------------------------------
          Leaving FHI-aims.
          Date     :  20260302, Time     :  015623.278

          Computational steps:
          | Number of self-consistency cycles          :           97
          | Number of SCF (re)initializations          :           10
          | Number of relaxation steps                 :            9

          Detailed time accounting                     :  max(cpu_time)    wall_clock(cpu1)
          | Total time                                  :      253.345 s         253.347 s
          | Preparation time                            :        0.117 s           0.117 s
          | Boundary condition initalization            :        0.311 s           0.304 s
          | Grid partitioning                           :        0.157 s           0.160 s
          | Preloading free-atom quantities on grid     :        4.983 s           4.983 s
          | Free-atom superposition energy              :        0.346 s           0.346 s
          | Total time for integrations                 :       30.737 s          30.740 s
          | Total time for solution of K.-S. equations  :        0.171 s           0.162 s
          | Total time for EV reorthonormalization      :        0.004 s           0.002 s
          | Total time for density & force components   :      199.528 s         199.524 s
          | Total time for mixing                       :        0.071 s           0.067 s
          | Total time for Hartree multipole update     :        0.047 s           0.049 s
          | Total time for Hartree multipole sum        :       10.741 s          10.735 s
          | Total time for total energy evaluation      :        0.010 s           0.013 s
          | Total time NSC force correction             :        5.911 s           5.911 s
          | Total time for scaled ZORA corrections      :        0.000 s           0.000 s

          Partial memory accounting:
          | Residual value for overall tracked memory usage across tasks:     0.000000 MB (should be 0.000000 MB)
          | Peak values for overall tracked memory usage:
          |   Minimum:       47.896 MB (on task 4 after allocating d_wave)
          |   Maximum:       49.652 MB (on task 0 after allocating d_wave)
          |   Average:       48.665 MB
          | Largest tracked array allocation:
          |   Minimum:       18.424 MB (density_matrix_con on task 4)
          |   Maximum:       19.531 MB (density_matrix_con on task 0)
          |   Average:       18.894 MB
          Note:  These values currently only include a subset of arrays which are explicitly tracked.
          The "true" memory usage will be greater.

          Have a nice day.
------------------------------------------------------------
#########################################################################################
#
#  Volker Blum, FHI 2008 : Test run input file control.in for simple H2O
#
#########################################################################################
#
#  Physical model
#
  xc                 pbe
  spin               none
  relativistic      atomic_zora scalar
  charge             0.
#
#  SCF convergence
# 
  occupation_type    methfessel-paxton  0.1 1
  mixer              pulay
      n_max_pulay        10
      charge_mix_param   0.02
  sc_accuracy_rho    1E-2
  sc_accuracy_eev    1E-1
  sc_accuracy_etot   1E-2
  KS_method          parallel
  basis_threshold    1.e-5
  override_illconditioning .true.
#
#  Relaxation
#
   relax_geometry   bfgs 3.0
#   max_atomic_move 0.1
   external_pressure 150
   pressure_unit GPa
   relax_unit_cell full
   max_relaxation_steps 10
#  output mulliken
#
################################################################################
#
#  FHI-aims code project
#  VB, Fritz-Haber Institut, 2009
#
#  Suggested "light" defaults for S atom (to be pasted into control.in file)
#  Be sure to double-check any results obtained with these settings for post-processing,
#  e.g., with the "tight" defaults and larger basis sets.
#
#  2020/09/08 Added f function to "light" after reinspection of Delta test outcomes.
#             This was done for all of Al-Cl and is a tricky decision since it makes
#             "light" calculations measurably more expensive for these elements.
#             Nevertheless, outcomes for P, S, Cl (and to some extent, Si) appear
#             to justify this choice.
#
################################################################################
  species        S
#     global species definitions
    nucleus             16
    mass                32.065
#
    l_hartree           4
#
    cut_pot             3.5          1.5  1.0
    basis_dep_cutoff    1e-4
#
    radial_base         44 5.0
    radial_multiplier   1
    angular_grids       specified
      division   0.4665  110
      division   0.5810  194
      division   0.7139  302
#      division   0.8274  434
#      division   0.9105  590
#      division   1.0975  770
#      division   1.2028  974
#      outer_grid  974
      outer_grid  302
################################################################################
#
#  Definition of "minimal" basis
#
################################################################################
#     valence basis states
    valence      3  s   2.
    valence      3  p   4.
#     ion occupancy
    ion_occ      3  s   1.
    ion_occ      3  p   3.
################################################################################
#
#  Suggested additional basis functions. For production calculations, 
#  uncomment them one after another (the most important basis functions are
#  listed first).
#
#  Constructed for dimers: 1.6 A, 1.9 A, 2.5 A, 3.25 A, 4.0 A
#
################################################################################
#  "First tier" - improvements: -652.81 meV to -45.53 meV
     ionic 3 d auto
     hydro 2 p 1.8
     hydro 4 f 7
     ionic 3 s auto
#  "Second tier" - improvements: -30.20 meV to -1.74 meV
#     hydro 4 d 6.2
#     hydro 5 g 10.8
#     hydro 4 p 4.9
#     hydro 5 f 10
#     hydro 1 s 0.8
#  "Third tier" - improvements: -1.04 meV to -0.20 meV
#     hydro 3 d 3.9
#     hydro 3 d 2.7
#     hydro 5 g 12
#     hydro 4 p 10.4
#     hydro 5 f 12.4
#     hydro 2 s 1.9
#  "Fourth tier" - improvements: -0.35 meV to -0.06 meV
#     hydro 4 d 10.4
#     hydro 4 p 7.2
#     hydro 4 d 10
#     hydro 5 g 19.2
#     hydro 4 s 12

################################################################################
#
#  FHI-aims code project
#  VB, Fritz-Haber Institut, 2009
#
#  Suggested "light" defaults for H atom (to be pasted into control.in file)
#  Be sure to double-check any results obtained with these settings for post-processing,
#  e.g., with the "tight" defaults and larger basis sets.
#
################################################################################
  species        H
#     global species definitions
    nucleus             1
    mass                1.00794
#
    l_hartree           4
#
    cut_pot             3.5  1.5  1.0
    basis_dep_cutoff    1e-4
#     
    radial_base         24 5.0
    radial_multiplier   1
    angular_grids       specified
      division   0.2421   50
      division   0.3822  110
      division   0.4799  194
      division   0.5341  302
#      division   0.5626  434
#      division   0.5922  590
#      division   0.6542  770
#      division   0.6868 1202
#      outer_grid  770
      outer_grid  302
################################################################################
#
#  Definition of "minimal" basis
#
################################################################################
#     valence basis states
    valence      1  s   1.
#     ion occupancy
    ion_occ      1  s   0.5
################################################################################
#
#  Suggested additional basis functions. For production calculations, 
#  uncomment them one after another (the most important basis functions are
#  listed first).
#
#  Basis constructed for dimers: 0.5 A, 0.7 A, 1.0 A, 1.5 A, 2.5 A
#
################################################################################
#  "First tier" - improvements: -1014.90 meV to -62.69 meV
     hydro 2 s 2.1
     hydro 2 p 3.5
#  "Second tier" - improvements: -12.89 meV to -1.83 meV
#     hydro 1 s 0.85
#     hydro 2 p 3.7
#     hydro 2 s 1.2
#     hydro 3 d 7
#  "Third tier" - improvements: -0.25 meV to -0.12 meV
#     hydro 4 f 11.2
#     hydro 3 p 4.8
#     hydro 4 d 9
#     hydro 3 s 3.2
k_grid 3 3 3
# 
# This is the geometry file that corresponds to the current relaxation step.
# If you do not want this file to be written, set the "write_restart_geometry" flag to .false.
#  aims_uuid : 2FEBE36A-2290-4781-AFB4-C279FCEF0B69                                                                        
# 
lattice_vector      2.210569694919      0.000000001705      0.000000000003
lattice_vector      0.000000001468      2.120015411299     -0.000000000006
lattice_vector      0.000000000001     -0.000000000002      3.026705994862
atom       0.000000003541     -0.000000002859     -0.000074008745 H
atom       0.554066051455      1.060007705641     -0.000067991165 H
atom       1.656503654100      1.060007719262     -0.000067991251 H
atom       1.105284835484      1.060007697461      1.513562988589 S
# 
# What follows is the current estimated Hessian matrix constructed by the BFGS algorithm.
# This is NOT the true Hessian matrix of the system.
# If you do not want this information here, switch it off using the "hessian_to_restart_geometry" keyword.
# 
trust_radius             0.1593811517
hessian_file
# 
# This is the geometry file that corresponds to the current relaxation step.
# If you do not want this file to be written, set the "write_restart_geometry" flag to .false.
#  aims_uuid : 2FEBE36A-2290-4781-AFB4-C279FCEF0B69                                                                        
# 
lattice_vector      2.210569694919      0.000000001705      0.000000000003
lattice_vector      0.000000001468      2.120015411299     -0.000000000006
lattice_vector      0.000000000001     -0.000000000002      3.026705994862
atom       0.000000003541     -0.000000002859     -0.000074008745 H
atom       0.554066051455      1.060007705641     -0.000067991165 H
atom       1.656503654100      1.060007719262     -0.000067991251 H
atom       1.105284835484      1.060007697461      1.513562988589 S
# 
# What follows is the current estimated Hessian matrix constructed by the BFGS algorithm.
# This is NOT the true Hessian matrix of the system.
# If you do not want this information here, switch it off using the "hessian_to_restart_geometry" keyword.
# 
trust_radius             0.1593811517
hessian_file
Ņ3/¬}×┘Ģ?¶|Ū£ė¾C<iJ┼²_>[=n¢GNęóŠyĖ┐ķļ¾z<9Ąļ┼“[=ŃłōpÓóŠä}ēUā╝╬WøŲ“[=±+AĶęŠ─┌ł-®ob<lģ■·╚tĮ╠ĄöOØ>æ3Y’┼v╝┘łÜI²;MĀįāw╝f«╚|)┌Ó=b█)ZŪ¤╔;)š}ŹĖ°§;g▓«▒╚;a@Æ{ ĮÕt×&¶C<hZ	▐BĢ?EŹ@“j5>=■ZŅŖ╚üõ=Źn¹“┤÷ęŠAÕŻŌŹ >=Ļäō╚üõĮxĖ¹“┤÷ęŠĪNDÄ >=QļVÉ9<▓Xē█'EžŠH0
Į!WĮT	än╠ś¾=┐žŹ"ŌX╝Öf╩┴░©ß;„ēłæY╝Äp½¹E<Š┐ź¤å▀;S╣TaU/┌;ÜG	Ņų;źŚ T$§ĮF*┤²_>[=.{U“j5>=¦EaCĢ?{[.ß░³>▓b─▓cm=nČI+O>ĻcG5ß░³Š╗/é$ĄvĮZ░ŖĆ+O>ņłg¦nŲ³<Į »L“U=æUÖ╗ĒY▐Š¢0Łåż?█¼N§W<iĮŽ ┤	xy§<ĢńyĆiĮ▒~!Ļø{¾Š `2­╠+ų<9Ā¶a#H’<	A▀╔├ćą<Fķ,nū§Šn¢GNęóŠ▐PŅŖ╚üõ={[.ß░³>3šDģ4Ę?▒╝Ā TÓ>▒T=Ü3o²>­ķšĆ▒┐čŅ¹¼Ę$Škģ▐č3o²>¾7šsQT┐=„║═Ś²>³ĘØ&ęŃ┐╝'┐ļĶé¼? ļ,ņŠE~ÓPX	Ż=śŗ┐■-ŠLŁ┌n]┐±ę?÷Ųi=æ½ųn”┬ø=ņ36ž)d=½S¶ØÜ┐öõ∙­¾z<Źn¹“┤÷ęŠ▓b─▓cm=ģ╗Ā TÓ>
L╚Ģ?ŅMO'n=ań2UÓŠbŌ╦ļĢ¼>Ą!å'n=NŁ░fh%╝SČļ╦ļĢ╝ŠŖ9mfmlåĮŻoó!>▄~÷ynł╝∙4┼"Ų<p[¬ŗu░ł╝ų£,_ŠŠ┤+╦Ī~¬¾;7KM╝ņ<<ČČ"L┼ĖĒ;ä³1AŠ9Ąļ┼“[=AÕŻŌŹ >=nČI+O>æT=Ü3o²>20MO'n=³“┌_śÜ?ŚķWĪ3o²Š╣P▀JüżvĮ╚ĢÅuÓ³ńŠćy╗┴ēŃ²<-ķ1äV=╚¤9v┐Ü3O╚Ć ?
åJKõiĮ²Ä<>÷<­dŪĪ)jĮ╣d[░ ¶Š▐üųĪ}┴ų<│£╠ę­<u`Å░4„ą<Åß³Lņi÷ŠŃłōpÓóŠ9|ō╚üõĮĻcG5ß░³Š­ķšĆ▒┐Ąń2UÓŠŚķWĪ3o²ŠBŪ{ŗ4Ę?P2ŁĘ$>8∙ž3o²ŠV=H=QT┐±£ėŚ²Šµ+ęŃ?„H ¶Ķé¼┐²Ōņ>╩C»WX	ŻĮ¾RP┼■->lOé█n]?zi╔ŪiĮ?Ŗx”┬øĮZśKž)dĮI  ×Ü?Z ╠1Uā╝xĖ¹“┤÷ęŠ╗/é$ĄvĮńŅ¹¼Ę$ŠbŌ╦ļĢ¼>[`ÓJüżvĮ║2ŁĘ$>
L╚Ģ?┬ķXrüżvĮqø▒ļGzB╝¤’╦ļĢ╝Š²kn°ŁųÉ=╗╬┴§S╣+Š=∙j~QÆ<▀¶g,A╝ģł¾┘béÆ<─°┬ž5#>¶}░╝ą ¬„╔╔╝┼Č└6y·╗x^h¬«9">╬WøŲ“[=ĪNDÄ >=Z░ŖĆ+O>kģ▐č3o²>: å'n=╚ĢÅuÓ³ńŠ9∙ž3o²Š ·YrüżvĮŗ“┌_śÜ?A░ß=JŃ²<ŃčÆ5äV=±┤9v┐JW³Ć ?█¤yõiĮjPØU>÷<*"ø§Ī)jĮ╦+0ļ░ ¶ŠFGµ█}┴ų<└G­<╝ a█4„ą<jó`Āņi÷Š±+AĶęŠŅ@Ö"┬æ9<;ĆŻnŲ³<¾7šsQT┐d®Üh%╝>V8xiŃ²<V=H=QT┐v┌4µRzB╝ck'IŃ²<E╦dxśŚ?M─©FL6<ø└8;[#ĮZČŪĘ¢ČĮ8BŖX“╗ó©_ Æ,∙;rŅ0┘wŽĶ╗5pmeĢŠ╚▄į░ż!ķ;%▓„ŻĢš­;b~±č▀; §Ć ³Ü¾Į╚ötob<▓Xē█'EžŠ7\┤L“U=Ē„║═Ś²>SČļ╦ļĢ╝Š=f:äV=A£ėŚ²Š¤’╦ļĢ╝Š„OŖ5äV=7╚ø\Ā6<`Z╔Č╚Ģ?0øźöŠpĮ╬©+Å>
qć0r╝ņ]¾Ø×ŗ <│H¼Xar╝õ*“^nŠŌJ╬TzO▀;ÆŠĖy!°;&©9Oų;5=y* 
Š$ü■·╚tĮ┬kĮ!WĮæUÖ╗ĒY▐Š¶ĘØ&ęŃ┐ī>kfmlåĮ╚¤9v┐µ+ęŃ?|ķn°ŁųÉ=±┤9v┐MÕĒĆk#ĮøźöŠpĮÆĶ2-żĀ?½▌Ę8─r┐▓¶f«#Aā=x#}bĮųķ╣žtā=t2ś~Š?O╩{▓ļ­╝bV─▐Įßń¬;ķ╝G_Ųč¬?╠ĄöOØ>T	än╠ś¾=¢0Łåż?╝'┐ļĶé¼?Żoó!>Ü3O╚Ć ?„H ¶Ķé¼┐╗╬┴§S╣+ŠJW³Ć ?ZČŪĘ¢ČĮ╬©+Å>½▌Ę8─r┐ójoEl▄?šXÜ<¦	Š2Z+Č'ż=░2ĀØGYŠówhs└?w
¦H
ģ=QIU_£=ÓŌ╝ōõ|=ļÜ)"+┤▓?æ3Y’┼v╝┐žŹ"ŌX╝█¼N§W<iĮ ļ,ņŠ▄~÷ynł╝
åJKõiĮ²Ōņ>=∙j~QÆ<█¤yõiĮ8BŖX“╗
qć0r╝▓¶f«#Aā=šXÜ<¦	Š╬©┬h6lŽ?ŌŃÉÕåų╝wć}5Ā/ģ<╚ĮĘ┼>ä═ų│“╗i×8u■	╝wH5	³Ļ╗<²d_->┘łÜI²;Öf╩┴░©ß;Ž ┤	xy§<E~ÓPX	Ż=∙4┼"Ų<²Ä<>÷<╩C»WX	ŻĮ▀¶g,A╝jPØU>÷<ó©_ Æ,∙;ņ]¾Ø×ŗ <x#}bĮ2Z+Č'ż=ŌŃÉÕåų╝ē$]╚G╔?ōŁč_╝ "o(*ż=ĻøŃM+u;ÅDWzĆ╚Ø;Į╗└░gn;É,dM,ŗ=MĀįāw╝„ēłæY╝ĢńyĆiĮśŗ┐■-Šp[¬ŗu░ł╝­dŪĪ)jĮ¾RP┼■->ģł¾┘béÆ<*"ø§Ī)jĮrŅ0┘wŽĶ╗│H¼Xar╝ųķ╣žtā=░2ĀØGYŠwć}5Ā/ģ<ōŁč_╝¦MÄ&“*į?]┘Ąä┘>3æé30“╗E·▐R²C
╝īŌ!t>1ļ╗╝x╝.>>f«╚|)┌Ó=Äp½¹E<Š▒~!Ļø{¾ŠLŁ┌n]┐ų£,_ŠŠ╣d[░ ¶ŠlOé█n]?─°┬ž5#>╦+0ļ░ ¶Š5pmeĢŠõ*“^nŠt2ś~Š?ówhs└?╚ĮĘ┼> "o(*ż=]┘Ąä┘>¬;M)&gą?»xH|¦¦”Į­═╦QØ=“ų│ń>zØĮÓµOJ %}?b█)ZŪ¤╔;┐ź¤å▀; `2­╠+ų<±ę?÷Ųi=┤+╦Ī~¬¾;▐üųĪ}┴ų<zi╔ŪiĮ¶}░╝FGµ█}┴ų<╚▄į░ż!ķ;ŌJ╬TzO▀;O╩{▓ļ­╝w
¦H
ģ=ä═ų│“╗ĻøŃM+u;3æé30“╗»xH|¦¦”Įē$]╚G╔?Ėn/JĀ▌n;0z'j4Ā{;ČsķĒĒOĢĮ)š}ŹĖ°§;S╣TaU/┌;9Ā¶a#H’<æ½ųn”┬ø=7KM╝ņ<<│£╠ę­<?Ŗx”┬øĮą ¬„╔╔╝└G­<%▓„ŻĢš­;ÆŠĖy!°;bV─▐ĮQIU_£=i×8u■	╝ÅDWzĆ╚Ø;E·▐R²C
╝­═╦QØ=Ėn/JĀ▌n;”MÄ&“*į?hŖ`1ź<f;Ģ¾E░Msü=g▓«▒╚;ÜG	Ņų;	A▀╔├ćą<ņ36ž)d=ČČ"L┼ĖĒ;u`Å░4„ą<ZśKž)dĮ┼Č└6y·╗╝ a█4„ą<b~±č▀;&©9Oų;ßń¬;ķ╝ÓŌ╝ōõ|=wH5	³Ļ╗Į╗└░gn;īŌ!t>1ļ╗“ų│ń>zØĮ0z'j4Ā{;hŖ`1ź<f;═©┬h6lŽ?C°ūč ╗ŗĮa@Æ{ ĮźŚ T$§ĮFķ,nū§Š½S¶ØÜ┐ä³1AŠÅß³Lņi÷ŠI  ×Ü?x^h¬«9">jó`Āņi÷Š §Ć ³Ü¾Į5=y* 
ŠG_Ųč¬?ļÜ)"+┤▓?<²d_->É,dM,ŗ=╝x╝.>>ÓµOJ %}?ČsķĒĒOĢĮĢ¾E░Msü=C°ūč ╗ŗĮG¬āJOKŽ?
#!/usr/bin/env bash

set -euo pipefail
BASE=/home/alessio-cucciari/Desktop/Programs/fhi-aims.250822/xtalopt_test

export FHIAIMS=/home/alessio-cucciari/Desktop/Programs/fhi-aims.250822/bin/aims.x

export OMP_NUM_THREADS=1
export MKL_NUM_THREADS=1
export MKL_DYNAMIC=FALSE
ulimit -s unlimited
export NP=8

# for quick tests: export NSTEPS=1 (or 2/3/4)

export NSTEPS=1

# materialize structure from XtalOpt placeholder (IMPORTANT: no blank line inside heredoc)
cat > POSCAR <<'EOF_POSCAR'
H3S1 /home/alessio-cucciari/Desktop/Programs/fhi-aims.250822/xtalopt_test/runs//00001x00001/
1
  3.28542340   0.00000000   0.00000000
  0.00000000   3.72231706   0.00000000
  0.00000000   0.00000000   4.15017408
H S 
3 1 
Direct
  0.00000000   0.00000000   0.00000000
  0.19967834   0.50000000   0.00000000
  0.80032166   0.50000000   0.00000000
  0.50000000   0.50000000   0.50000000
EOF_POSCAR

# number of relaxation steps from XtalOpt user field (set user1 = 1..4)

NSTEPS_RAW="1"

if [[ "$NSTEPS_RAW" =~ ^[1-4]$ ]]; then

  NSTEPS="$NSTEPS_RAW"

else

  NSTEPS=1

fi


# run FHI-aims workflow

bash "$BASE/bin/run_aims_4step_local.sh" . "$NSTEPS"


# parse result

RES=$(python3 "$BASE/bin/parse_aims_for_xtalopt.py" --workdir . --mode energy)



# write to XtalOpt expected output file

OUTFILE="/home/alessio-cucciari/Desktop/Programs/fhi-aims.250822/xtalopt_test/runs//00001x00001/"


if [[ -d "$OUTFILE" || "$OUTFILE" == */ ]]; then


  OUTDIR=$(printf 's' "$OUTFILE" | sed 's:/*$::')

  OUTFILE="$OUTDIR/job.out"

fi

cat > "$OUTFILE" <<EOF_RES

$RES

EOF_RES

job.in: line 75: s/job.out: No such file or directory
step=1 KDENS=0.12 k_grid=3 3 3
H3S1 /home/alessio-cucciari/Desktop/Programs/fhi-aims.250822/xtalopt_test/runs//00001x00001/
1
  3.28542340   0.00000000   0.00000000
  0.00000000   3.72231706   0.00000000
  0.00000000   0.00000000   4.15017408
H S 
3 1 
Direct
  0.00000000   0.00000000   0.00000000
  0.19967834   0.50000000   0.00000000
  0.80032166   0.50000000   0.00000000
  0.50000000   0.50000000   0.50000000
[structure]
copyFiles\size=0
current\PV=0
current\atomicNums\1\value=1
current\atomicNums\2\value=1
current\atomicNums\3\value=1
current\atomicNums\4\value=16
current\atomicNums\size=4
current\cell\00=3.285423404401152
current\cell\01=0
current\cell\02=0
current\cell\10=2.2792618386724246e-16
current\cell\11=3.7223170635963534
current\cell\12=0
current\cell\20=2.5412486988878337e-16
current\cell\21=2.541248698887834e-16
current\cell\22=4.150174075753352
current\coords\1\x=0
current\coords\1\y=0
current\coords\1\z=0
current\coords\2\x=0.656028
current\coords\2\y=1.86116
current\coords\2\z=0
current\coords\3\x=2.6294
current\coords\3\y=1.86116
current\coords\3\z=0
current\coords\4\x=1.64271
current\coords\4\y=1.86116
current\coords\4\z=2.07509
current\coords\size=4
current\energy=0
current\enthalpy=0
current\hasCellInfo=true
currentOptStep=0
endTime=Mon Mar 2 01:56:25 2026
failCount=1
generation=1
hasValidComposition=true
history\atomicNums\size=0
history\cells\size=0
history\coords\size=0
history\energies\size=0
history\enthalpies\size=0
history\objectives\size=0
id=1
index=0
jobID=0
locpath=/home/alessio-cucciari/Desktop/Programs/fhi-aims.250822/xtalopt_test/runs//00001x00001/
objectives\size=0
objectivesFailCount=0
objectivesState=0
parents="RandSpg Init: 47 [comp=H3S1] (P m m m)"
preoptBonds\size=0
primitiveChecked=false
rank=1
rempath=/00001x00001/
reusePreoptBonding=true
saveSuccessful=true
skippedOptimization=false
startTime=Mon Mar 2 01:52:09 2026
status=8
version=4
[structure]
copyFiles\size=0
current\PV=0
current\atomicNums\1\value=1
current\atomicNums\2\value=1
current\atomicNums\3\value=1
current\atomicNums\4\value=16
current\atomicNums\size=4
current\cell\00=3.285423404401152
current\cell\01=0
current\cell\02=0
current\cell\10=2.2792618386724246e-16
current\cell\11=3.7223170635963534
current\cell\12=0
current\cell\20=2.5412486988878337e-16
current\cell\21=2.541248698887834e-16
current\cell\22=4.150174075753352
current\coords\1\x=0
current\coords\1\y=0
current\coords\1\z=0
current\coords\2\x=0.656028
current\coords\2\y=1.86116
current\coords\2\z=0
current\coords\3\x=2.6294
current\coords\3\y=1.86116
current\coords\3\z=0
current\coords\4\x=1.64271
current\coords\4\y=1.86116
current\coords\4\z=2.07509
current\coords\size=4
current\energy=0
current\enthalpy=0
current\hasCellInfo=true
currentOptStep=0
endTime=
failCount=0
generation=1
hasValidComposition=true
history\atomicNums\size=0
history\cells\size=0
history\coords\size=0
history\energies\size=0
history\enthalpies\size=0
history\objectives\size=0
id=1
index=0
jobID=215922
locpath=/home/alessio-cucciari/Desktop/Programs/fhi-aims.250822/xtalopt_test/runs//00001x00001/
objectives\size=0
objectivesFailCount=0
objectivesState=0
parents="RandSpg Init: 47 [comp=H3S1] (P m m m)"
preoptBonds\size=0
primitiveChecked=false
rank=1
rempath=/00001x00001/
reusePreoptBonding=true
saveSuccessful=true
skippedOptimization=false
startTime=Mon Mar 2 01:52:09 2026
status=6
version=4
