------------------------------------------------------------
          Invoking FHI-aims ...

          When using FHI-aims, please cite the following reference:

            Volker Blum, Ralf Gehrke, Felix Hanke, Paula Havu,
            Ville Havu, Xinguo Ren, Karsten Reuter, and Matthias Scheffler,
            'Ab Initio Molecular Simulations with Numeric Atom-Centered Orbitals',
            Computer Physics Communications 180, 2175-2196 (2009)

          In addition, many other developments in FHI-aims are likely important for
          your particular application. If so, please cite them. A partial list of references
          is written at the end of this file. Thank you for giving credit to the authors
          of these developments.

          For general information about FHI-aims please find us at

            https://fhi-aims.org

          Online tutorials can be found at

            https://fhi-aims-club.gitlab.io/tutorials/tutorials-overview/

          For any questions about FHI-aims, please visit our slack channel at

            https://fhi-aims.slack.com

          and our main development and support site at

            https://aims-git.rz-berlin.mpg.de .

          The latter site, in particular, has a wiki to collect information, as well
          as an issue tracker to log discussions, suggest improvements, and report issues
          or bugs. https://aims-git.rz-berlin.mpg.de is also the main development site
          of the project and all new and updated code versions can be obtained there.
          Please send an email to aims-coordinators@fhi-berlin.mpg.de and we will add
          you to these sites. They are for you and everyone is welcome there.

------------------------------------------------------------



  Date     :  20260302, Time     :  113640.737
  Time zero on CPU 1             :   0.221700000000000E-01  s.
  Internal wall clock time zero  :           541683400.737  s.

  FHI-aims created a unique identifier for this run for later identification
  aims_uuid : D378C9A5-D843-4F74-A110-311BF6F16484

  Build configuration of the current instance of FHI-aims
  -------------------------------------------------------
  FHI-aims version      : 250822
  Commit number         : GITDIR-NOTFOUND
  CMake host system     : Linux-6.17.0-14-generic
  CMake version         : 3.28.3
  OS Distribution       : Ubuntu 24.04.4 LTS
  Built on              : Intel(R) Core(TM) i9-10900KF CPU @ 3.70GHz
  Fortran compiler      : /usr/bin/mpif90 (GNU) version 13.3.0
  Fortran compiler flags: -O3 -march=native -mtune=native -fallow-argument-mismatch
  C compiler            : /usr/bin/mpicc (GNU) version 13.3.0
  C compiler flags      : -O3 -march=native -mtune=native -std=gnu11
  C++ compiler          : /usr/bin/mpicxx (GNU) version 13.3.0
  C++ compiler flags    : -O3 -march=native -mtune=native
  HIP compiler          :
  HIP compiler flags    :
  HIP GPU arch          :
  Using MPI
  Using ScaLAPACK
  Using LibXC
  Using i-PI
  Using RLSY
  Linking against: /opt/intel/oneapi/mkl/2025.0/lib/libmkl_scalapack_lp64.so
                   /opt/intel/oneapi/mkl/2025.0/lib/libmkl_blacs_openmpi_lp64.so
                   /opt/intel/oneapi/mkl/2025.0/lib/libmkl_intel_lp64.so
                   /opt/intel/oneapi/mkl/2025.0/lib/libmkl_sequential.so
                   /opt/intel/oneapi/mkl/2025.0/lib/libmkl_core.so
                   /usr/lib/x86_64-linux-gnu/libpthread.a
                   /usr/lib/x86_64-linux-gnu/libdl.a
                   /usr/lib/x86_64-linux-gnu/libm.so

  Using        4 parallel tasks.
  Task        0 on host cucciari-lab reporting.
  Task        1 on host cucciari-lab reporting.
  Task        2 on host cucciari-lab reporting.
  Task        3 on host cucciari-lab reporting.

  Obtaining array dimensions for all initial allocations:
  
  -----------------------------------------------------------------------
  Parsing control.in (first pass over file, find array dimensions only).
  The contents of control.in will be repeated verbatim below
  unless switched off by setting 'verbatim_writeout .false.' .
  in the first line of control.in .
  -----------------------------------------------------------------------
  
  #########################################################################################
  #
  #  Volker Blum, FHI 2008 : Test run input file control.in for simple H2O
  #
  #########################################################################################
  #
  #  Physical model
  #
    xc                 pbe
    spin               none
    relativistic      atomic_zora scalar
    charge             0.
  #
  #  SCF convergence
  #
    occupation_type    methfessel-paxton  0.1 1
    mixer              pulay
        n_max_pulay        10
        charge_mix_param   0.02
    sc_accuracy_rho    1E-2
    sc_accuracy_eev    1E-1
    sc_accuracy_etot   1E-2
    KS_method          parallel
    basis_threshold    1.e-5
    override_illconditioning .true.
  #
  #  Relaxation
  #
     relax_geometry   bfgs 3.0
  #   max_atomic_move 0.1
     external_pressure 150
     pressure_unit GPa
     relax_unit_cell full
     max_relaxation_steps 10
  #  output mulliken
  #
  ################################################################################
  #
  #  FHI-aims code project
  #  VB, Fritz-Haber Institut, 2009
  #
  #  Suggested "light" defaults for S atom (to be pasted into control.in file)
  #  Be sure to double-check any results obtained with these settings for post-processing,
  #  e.g., with the "tight" defaults and larger basis sets.
  #
  #  2020/09/08 Added f function to "light" after reinspection of Delta test outcomes.
  #             This was done for all of Al-Cl and is a tricky decision since it makes
  #             "light" calculations measurably more expensive for these elements.
  #             Nevertheless, outcomes for P, S, Cl (and to some extent, Si) appear
  #             to justify this choice.
  #
  ################################################################################
    species        S
  #     global species definitions
      nucleus             16
      mass                32.065
  #
      l_hartree           4
  #
      cut_pot             3.5          1.5  1.0
      basis_dep_cutoff    1e-4
  #
      radial_base         44 5.0
      radial_multiplier   1
      angular_grids       specified
        division   0.4665  110
        division   0.5810  194
        division   0.7139  302
  #      division   0.8274  434
  #      division   0.9105  590
  #      division   1.0975  770
  #      division   1.2028  974
  #      outer_grid  974
        outer_grid  302
  ################################################################################
  #
  #  Definition of "minimal" basis
  #
  ################################################################################
  #     valence basis states
      valence      3  s   2.
      valence      3  p   4.
  #     ion occupancy
      ion_occ      3  s   1.
      ion_occ      3  p   3.
  ################################################################################
  #
  #  Suggested additional basis functions. For production calculations,
  #  uncomment them one after another (the most important basis functions are
  #  listed first).
  #
  #  Constructed for dimers: 1.6 A, 1.9 A, 2.5 A, 3.25 A, 4.0 A
  #
  ################################################################################
  #  "First tier" - improvements: -652.81 meV to -45.53 meV
       ionic 3 d auto
       hydro 2 p 1.8
       hydro 4 f 7
       ionic 3 s auto
  #  "Second tier" - improvements: -30.20 meV to -1.74 meV
  #     hydro 4 d 6.2
  #     hydro 5 g 10.8
  #     hydro 4 p 4.9
  #     hydro 5 f 10
  #     hydro 1 s 0.8
  #  "Third tier" - improvements: -1.04 meV to -0.20 meV
  #     hydro 3 d 3.9
  #     hydro 3 d 2.7
  #     hydro 5 g 12
  #     hydro 4 p 10.4
  #     hydro 5 f 12.4
  #     hydro 2 s 1.9
  #  "Fourth tier" - improvements: -0.35 meV to -0.06 meV
  #     hydro 4 d 10.4
  #     hydro 4 p 7.2
  #     hydro 4 d 10
  #     hydro 5 g 19.2
  #     hydro 4 s 12
  
  ################################################################################
  #
  #  FHI-aims code project
  #  VB, Fritz-Haber Institut, 2009
  #
  #  Suggested "light" defaults for H atom (to be pasted into control.in file)
  #  Be sure to double-check any results obtained with these settings for post-processing,
  #  e.g., with the "tight" defaults and larger basis sets.
  #
  ################################################################################
    species        H
  #     global species definitions
      nucleus             1
      mass                1.00794
  #
      l_hartree           4
  #
      cut_pot             3.5  1.5  1.0
      basis_dep_cutoff    1e-4
  #
      radial_base         24 5.0
      radial_multiplier   1
      angular_grids       specified
        division   0.2421   50
        division   0.3822  110
        division   0.4799  194
        division   0.5341  302
  #      division   0.5626  434
  #      division   0.5922  590
  #      division   0.6542  770
  #      division   0.6868 1202
  #      outer_grid  770
        outer_grid  302
  ################################################################################
  #
  #  Definition of "minimal" basis
  #
  ################################################################################
  #     valence basis states
      valence      1  s   1.
  #     ion occupancy
      ion_occ      1  s   0.5
  ################################################################################
  #
  #  Suggested additional basis functions. For production calculations,
  #  uncomment them one after another (the most important basis functions are
  #  listed first).
  #
  #  Basis constructed for dimers: 0.5 A, 0.7 A, 1.0 A, 1.5 A, 2.5 A
  #
  ################################################################################
  #  "First tier" - improvements: -1014.90 meV to -62.69 meV
       hydro 2 s 2.1
       hydro 2 p 3.5
  #  "Second tier" - improvements: -12.89 meV to -1.83 meV
  #     hydro 1 s 0.85
  #     hydro 2 p 3.7
  #     hydro 2 s 1.2
  #     hydro 3 d 7
  #  "Third tier" - improvements: -0.25 meV to -0.12 meV
  #     hydro 4 f 11.2
  #     hydro 3 p 4.8
  #     hydro 4 d 9
  #     hydro 3 s 3.2
  k_grid 3 2 1
  
  -----------------------------------------------------------------------
  Completed first pass over input file control.in .
  -----------------------------------------------------------------------
  
  
  -----------------------------------------------------------------------
  Parsing geometry.in (first pass over file, find array dimensions only).
  The contents of geometry.in will be repeated verbatim below
  unless switched off by setting 'verbatim_writeout .false.' .
  in the first line of geometry.in .
  -----------------------------------------------------------------------
  
  #===============================================================================
  # Created using the Atomic Simulation Environment (ASE)
  
  # Mon Mar  2 11:36:40 2026
  
  #=======================================================
  lattice_vector 2.8039007800000002 0.0000000000000000 0.0000000000000000
  lattice_vector 0.0000000000000000 6.5860328700000004 0.0000000000000000
  lattice_vector 0.0000000000000000 0.0000000000000000 9.5908316300000003
  atom 0.0000000000000000 3.2930164350000002 0.0000000000000000 H
  atom 1.9699762181616294 0.0000000000000000 4.7954158150000001 H
  atom 0.8339245618383708 0.0000000000000000 4.7954158150000001 H
  atom 1.4019503900000001 0.0000000000000000 0.0000000000000000 S
  
  -----------------------------------------------------------------------
  Completed first pass over input file geometry.in .
  -----------------------------------------------------------------------
  

  Basic array size parameters:
  | Number of species                 :        2
  | Number of atoms                   :        4
  | Number of lattice vectors         :        3
  | Max. basis fn. angular momentum   :        3
  | Max. atomic/ionic basis occupied n:        3
  | Max. number of basis fn. types    :        3
  | Max. radial fns per species/type  :        5
  | Max. logarithmic grid size        :     1357
  | Max. radial integration grid size :       44
  | Max. angular integration grid size:      302
  | Max. angular grid division number :        8
  | Radial grid for Hartree potential :     1357
  | Number of spin channels           :        1

  Definition of standardized fundamental physical constants in this FHI-aims run:
  | Using the set of values used in FHI-aims up to 2024, which combines values from
  | different CODATA sets - see constants.f90.
  | Use the 'codata' keyword in control.in to change this selection.

  Memory overcommitment is allowed on your operating system.

------------------------------------------------------------
          Reading file control.in.
------------------------------------------------------------
  XC: Using PBE gradient-corrected functionals.
  Spin treatment: No spin polarisation.
  Scalar relativistic treatment of kinetic energy: on-site free-atom approximation to ZORA.
  Charge =   0.000000E+00: Neutral system requested explicitly.
  Occupation type: Methfessel-Paxton broadening, width =   0.100000E+00 eV, N =    1
  Using pulay charge density mixing.
  Pulay mixing - number of memorized iterations:   10
  Charge density mixing - mixing parameter:     0.0200
  Convergence accuracy of self-consistent charge density:  0.1000E-01
  Convergence accuracy of sum of eigenvalues:  0.1000E+00
  Convergence accuracy of total energy:  0.1000E-01
  Kohn-Sham electronic structure solved by the ELSI library.
  Threshold for basis singularities:  0.1000E-04
  override_illconditioning: Explicitly overriding any built-in checks for an ill-conditioned overlap matrix.
** WARNING:
  ***  If you use this flag, you should really know what you are doing.
** END OF WARNING
** WARNING:
  *** DO NOT keep this flag set by default in all your control.in files.
** END OF WARNING
  Geometry relaxation: Modified BFGS - TRM (trust radius method) for lattice optimization.
  Convergence accuracy for geometry relaxation: Maximum force <   0.300000E+01 eV/A.
  pressure_unit: Unit for the external pressure set to GPa.
  Maximum steps for geometry relaxation:       10

  Reading configuration options for species S                   .
  | Found nuclear charge :  16.0000
  | Found atomic mass :    32.064999999999998      amu
  | Found l_max for Hartree potential  :   4
  | Found cutoff potl. onset [A], width [A], scale factor :    3.50000    1.50000    1.00000
  | Threshold for basis-dependent cutoff potential is   0.100000E-03
  | Found data for basic radial integration grid :    44 points, outermost radius =    5.000 A
  | Found multiplier for basic radial grid :   1
  | Found angular grid specification: user-specified.
  | Specified grid contains     4 separate shells.
  | Check grid settings after all constraints further below.
  | Found free-atom valence shell :  3 s   2.000
  | Found free-atom valence shell :  3 p   4.000
  | Found free-ion valence shell :  3 s   1.000
  | Found free-ion valence shell :  3 p   3.000
  | Found ionic basis function :  3 d , default cutoff radius.
  | Found hydrogenic basis function :  2 p   1.800
  | Found hydrogenic basis function :  4 f   7.000
  | Found ionic basis function :  3 s , default cutoff radius.
 | Encountered keyword species, ending the description of species S                   .
  Species S                   : Missing cutoff potential type.
  Defaulting to exp(1/x)/(1-x)^2 type cutoff potential.
  Species S : No 'logarithmic' tag. Using default grid for free atom:
  | Default logarithmic grid data [bohr] : 0.1000E-03 0.1000E+03 0.1012E+01
  | Will include ionic basis functions of  2.0-fold positive S                    ion.
  Species S : On-site basis accuracy parameter (for Gram-Schmidt orthonormalisation) not specified.
  Using default value basis_acc =  0.1000000E-03.
  Species S                   : Using default innermost maximum threshold i_radial=  2 for radial functions.
  Species S                   : Default cutoff onset for free atom density etc. : 0.35000000E+01 AA.
  Species S                   : Basic radial grid will be enhanced according to radial_multiplier =   1, to contain    44 grid points.

  Reading configuration options for species H                   .
  | Found nuclear charge :   1.0000
  | Found atomic mass :    1.0079400000000001      amu
  | Found l_max for Hartree potential  :   4
  | Found cutoff potl. onset [A], width [A], scale factor :    3.50000    1.50000    1.00000
  | Threshold for basis-dependent cutoff potential is   0.100000E-03
  | Found data for basic radial integration grid :    24 points, outermost radius =    5.000 A
  | Found multiplier for basic radial grid :   1
  | Found angular grid specification: user-specified.
  | Specified grid contains     5 separate shells.
  | Check grid settings after all constraints further below.
  | Found free-atom valence shell :  1 s   1.000
  | Found free-ion valence shell :  1 s   0.500
  | Found hydrogenic basis function :  2 s   2.100
  | Found hydrogenic basis function :  2 p   3.500
 | Encountered keyword k_grid, ending the description of species H                   .
  Species H                   : Missing cutoff potential type.
  Defaulting to exp(1/x)/(1-x)^2 type cutoff potential.
  Species H : No 'logarithmic' tag. Using default grid for free atom:
  | Default logarithmic grid data [bohr] : 0.1000E-03 0.1000E+03 0.1012E+01
  Species H : On-site basis accuracy parameter (for Gram-Schmidt orthonormalisation) not specified.
  Using default value basis_acc =  0.1000000E-03.
  Species H                   : Using default innermost maximum threshold i_radial=  2 for radial functions.
  Species H                   : Default cutoff onset for free atom density etc. : 0.35000000E+01 AA.
  Species H                   : Basic radial grid will be enhanced according to radial_multiplier =   1, to contain    24 grid points.
  Found k-point grid:         3         2         1

  Finished reading input file 'control.in'.

------------------------------------------------------------


------------------------------------------------------------
          Reading geometry description geometry.in.
------------------------------------------------------------
  | The smallest distance between any two atoms is         1.13605166 AA.
  | The first atom of this pair is atom number                      2 .
  | The second atom of this pair is atom number                     3 .
  | Wigner-Seitz cell of the first atom image           1     0     0 .
  | (The Wigner-Seitz cell of the second atom is 0 0 0  by definition.)

  Symmetry information by spglib:
  | Precision set to  0.1E-04
  | Number of Operations  : 8
  | Space group           : 47
  | International         : Pmmm
  | Schoenflies           : D2h^1
  Input structure read successfully.
  The structure contains        4 atoms,  and a total of         19.000 electrons.

  Input geometry:
  | Unit cell:
  |        2.80390078        0.00000000        0.00000000
  |        0.00000000        6.58603287        0.00000000
  |        0.00000000        0.00000000        9.59083163
  | Atomic structure:
  |       Atom                x [A]            y [A]            z [A]
  |    1: Species H             0.00000000        3.29301644        0.00000000
  |    2: Species H             1.96997622        0.00000000        4.79541582
  |    3: Species H             0.83392456        0.00000000        4.79541582
  |    4: Species S             1.40195039        0.00000000        0.00000000

  Lattice parameters for 3D lattice (in Angstroms) :     2.803901    6.586033    9.590832
  Angle(s) between unit vectors (in degrees)       :    90.000000   90.000000   90.000000


  Quantities derived from the lattice vectors (in Angstrom^-1):
  | Reciprocal lattice vector 1:  2.240873  0.000000  0.000000
  | Reciprocal lattice vector 2:  0.000000  0.954017  0.000000
  | Reciprocal lattice vector 3:  0.000000  0.000000  0.655124
  | Unit cell volume                               :   0.177110E+03  Angstrom^3

  Fractional coordinates:
                         L1                L2                L3
       atom_frac         0.00000000        0.50000000        0.00000000  H
       atom_frac         0.70258414        0.00000000        0.50000000  H
       atom_frac         0.29741586        0.00000000        0.50000000  H
       atom_frac         0.50000000        0.00000000        0.00000000  S

  Slab Identifier: This seems to be a bulk system.

  Finished reading input file 'geometry.in'.



  Consistency checks for stacksize environment parameter are next.

  | Maximum stacksize for task 0: unlimited
  | Maximum stacksize for task 1: unlimited
  | Maximum stacksize for task 2: unlimited
  | Maximum stacksize for task 3: unlimited
  | Current stacksize for task 0: unlimited
  | Current stacksize for task 1: unlimited
  | Current stacksize for task 2: unlimited
  | Current stacksize for task 3: unlimited

  Consistency checks for the contents of control.in are next.

  MPI_IN_PLACE appears to work with this MPI implementation.
  | Keeping use_mpi_in_place .true. (see manual).
  Target number of points in a grid batch is not set. Defaulting to  100
  Method for grid partitioning is not set. Defaulting to parallel hash+maxmin partitioning.
  Batch size limit is not set. Defaulting to    200
  By default, will store active basis functions for each batch.
  If in need of memory, prune_basis_once .false. can be used to disable this option.
  communication_type for Hartree potential was not specified.
  Defaulting to calc_hartree .
  Pulay mixer: Number of initial linear mixing iterations not set.
  Defaulting to    0 iterations.
  Work space size for distributed Hartree potential not set.
  Defaulting to   0.200000E+03 MB.
  Algorithm-dependent basis array size parameters:
  | n_max_pulay                         :       10
  Maximum number of self-consistency iterations not provided.
  Presetting  1000 iterations.
  Presetting      1001 iterations before the initial mixing cycle
  is restarted anyway using the sc_init_iter criterion / keyword.
  Presetting a factor      1.000 between actual scf density residual
  and density convergence criterion sc_accuracy_rho below which sc_init_iter
  takes no effect.
  Default initial Hessian is Lindh matrix (thres = 15.00) plus  0.200000E+01 eV/A^2 times unity.
  No maximum energy tolerance for TRM/BFGS moves, defaulting to   0.150000E-02
  Maximum energy tolerance by which TRM/BFGS trajectory may increase over multiple steps:   0.300000E-02
  No harmonic length scale. Defaulting to   0.250000E-01 A.
  No trust radius initializer. Defaulting to   0.200000E+00 A.
  External pressure of  0.936E+00 eV/A**3 ( 0.150E+03 GPa) is applied to system.
  Unit cell relaxation: Unit cell will be relaxed fully.
  Unit cell relaxation: Analytical stress will be used.
  Analytical stress will be computed.
  Analytical stress calculation: Only the upper triangle is calculated.
                                 Final output is symmetrized.
  Analytical stress calculation: scf convergence accuracy of stress not set.
                                 Analytical stress self-consistency will not be checked explicitly.
                                 Be sure to set other criteria like sc_accuracy_rho tight enough.
  Forces evaluation will include force correction term due to incomplete self-consistency (default).
  Force calculation: scf convergence accuracy of forces not set.
  Defaulting to 'sc_accuracy_forces not_checked'.
  Handling of forces: Unphysical translation and rotation will be removed from forces.
  No accuracy limit for integral partition fn. given. Defaulting to  0.1000E-14.
  No threshold value for u(r) in integrations given. Defaulting to  0.1000E-05.
  No accuracy for occupation numbers given. Defaulting to  0.1000E-12.
  No threshold value for occupation numbers given. Defaulting to  0.0000E+00.
  No accuracy for fermi level given. Defaulting to  0.1000E-19.
  Maximum # of iterations to find E_F not set. Defaulting to  200.
 * You have     6 k-points in your system, but only     4 MPI-tasks available.
 * In this case using ScaLAPACK is not necessary / supported.
 * Switching to LAPACK (via ELSI) instead.
  Will not use alltoall communication since running on < 1024 CPUs.
  partition_type (choice of integration weights) for integrals was not specified.
  | Using a version of the partition function of Stratmann and coworkers ('stratmann_sparse').
  | At each grid point, the set of atoms used to build the partition table is smoothly restricted to
  | only those atoms whose free-atom density would be non-zero at that grid point.
  Partitioning for Hartree potential was not defined. Using partition_type for integrals.
  | Adjusted default value of keyword multip_moments_threshold to:       0.10000000E-11
  | This value may affect high angular momentum components of the Hartree potential in periodic systems.
  Using 2025 definition of centers list for evaluation of the Stratmann partition function.
  No q(lm)/r^(l+1) cutoff set for long-range Hartree potential.
  | Using default value of  0.100000E-09 .
  | Verify using the multipole_threshold keyword.
  Defaulting to new monopole extrapolation.
  Density update method: automatic selection selected.
  Using density matrix based charge density update.
  Using density matrix based charge density update.
  Using packed matrix style: index .
  Threshold of packed matrixes:  0.000000E+00
  Geometry relaxation: A file "geometry.in.next_step" is written out by default after each step.
  | This file contains the geometry of the current relaxation step as well as
  | the current Hessian matrix needed to restart the relaxation algorithm.
  | If you do not want part or all of this information, use the keywords
  | "write_restart_geometry" or "hessian_to_restart_geometry" to switch the output off.
  Defaulting to use time-reversal symmetry for k-point grid.
  Charge integration errors on the 3D integration grid will be compensated
  by explicit normalization and distribution of residual charges.
  Use the "compensate_multipole_errors" flag to change this behaviour.
  Set 'collect_eigenvectors' to be '.true.' for all serial calculations. This is mandatory.
  Set 'collect_eigenvectors' to be '.true.' for KS_method lapack_fast and serial.
  Found potential conflicts with setting 'use_local_index' for this calculation. Will not set it.

  Consistency checks for the contents of geometry.in are next.


  Range separation radius for Ewald summation (hartree_convergence_parameter):      5.00000000 bohr.
  Number of empty states per atom not set in control.in - providing a guess from actual geometry.
  | Total number of empty states used during s.c.f. cycle:        8
  If you use a very high smearing, use empty_states (per atom!) in control.in to increase this value.

  Structure-dependent array size parameters: 
  | Maximum number of distinct radial functions  :       12
  | Maximum number of basis functions            :       40
  | Number of Kohn-Sham states (occupied + empty):       18
------------------------------------------------------------

  Checking k-grid inconsistencies now:
  | k-point density for reciprocal lattice vector 1 is    1.34 nkpts / Angstrom^-1
  | k-point density for reciprocal lattice vector 2 is    2.10 nkpts / Angstrom^-1
  | k-point density for reciprocal lattice vector 3 is    1.53 nkpts / Angstrom^-1

  | Ratio of k-point densities for reciprocal lattice vectors 1 vs 2 is    0.64
  | Ratio of k-point densities for reciprocal lattice vectors 1 vs 3 is    0.88
  | Ratio of k-point densities for reciprocal lattice vectors 2 vs 3 is    1.37

  * The specified k_grid leads to a nearly homogenous k-grid density in non-vacuum directions,
  * and seems sensible.

  | Checks passed.
  After read_input_data [GB]:     22.65

  Performing system and environment tests:
  | Environment variable OMP_NUM_THREADS correctly set to 1.
  | Checking for ScaLAPACK...
  | Testing pdtran()...
  | All pdtran() tests passed.
  | Testing CPU compatibility for run-time vs. build-time.
  | Reading /proc/cpuinfo for CPU information ...
  | Built for  : Intel(R) Core(TM) i9-10900KF CPU @ 3.70GHz
  | Running on : Intel(R) Core(TM) i9-10900KF CPU @ 3.70GHz
  | Runtime CPU compatibility verified.
  
  After prepare_system [GB]:     22.62

------------------------------------------------------------
          Preparing all fixed parts of the calculation.
------------------------------------------------------------
  Determining machine precision:
     2.2250738585072014E-308
  Setting up grids for atomic and cluster calculations.

  Creating wave function, potential, and density for free atoms.
  Runtime choices for atomic solver:
  | atomic solver xc        : PBE
  | compute density gradient: 1
  | compute kinetic density : F

  Species: S

  List of occupied orbitals and eigenvalues:
    n    l              occ      energy [Ha]    energy [eV]
    1    0           2.0000       -88.678258     -2413.0582
    2    0           2.0000        -7.779365      -211.6873
    3    0           2.0000        -0.631865       -17.1939
    2    1           6.0000        -5.749610      -156.4549
    3    1           4.0000        -0.255301        -6.9471


  Species: H

  List of occupied orbitals and eigenvalues:
    n    l              occ      energy [Ha]    energy [eV]
    1    0           1.0000        -0.237593        -6.4652


  Adding cutoff potential to free-atom effective potential.
  Creating fixed part of basis set: Ionic, confined, hydrogenic.

  S                    ion:

  List of free ionic orbitals and eigenvalues:
    n    l      energy [Ha]    energy [eV]
    1    0       -89.703778     -2440.9640
    2    0        -8.775428      -238.7916
    3    0        -1.470343       -40.0101
    2    1        -6.747660      -183.6132
    3    1        -1.048627       -28.5346


  List of ionic basis orbitals and eigenvalues:
    n    l      energy [Ha]    energy [eV]    outer radius [A]
    3    2        -0.495221       -13.4756       4.539062
    3    0        -1.470325       -40.0096       3.642502


  S                    hydrogenic:

  List of hydrogenic basis orbitals: 
    n    l      effective z      eigenvalue [eV]  inner max. [A]     outer max. [A]     outer radius [A]   
    2    1         1.800000       -10.9749           1.168531           1.168531           4.594893
    4    3         7.000000       -41.6658           1.212182           1.212182           4.539062


  H                    hydrogenic:

  List of hydrogenic basis orbitals: 
    n    l      effective z      eigenvalue [eV]  inner max. [A]     outer max. [A]     outer radius [A]   
    2    0         2.100000       -14.9728           0.193243           1.317208           4.583499
    2    1         3.500000       -41.6669           0.602369           0.602369           3.723403

  Creating atomic-like basis functions for current effective potential.

  Species S                   :

  List of atomic basis orbitals and eigenvalues:
    n    l      energy [Ha]    energy [eV]    outer radius [A]
    1    0       -88.678258     -2413.0582       0.682391
    2    0        -7.779365      -211.6873       2.289014
    3    0        -0.631865       -17.1939       4.483910
    2    1        -5.749610      -156.4549       2.555240
    3    1        -0.255301        -6.9471       4.539062


  Species H                   :

  List of atomic basis orbitals and eigenvalues:
    n    l      energy [Ha]    energy [eV]    outer radius [A]
    1    0        -0.237593        -6.4652       4.527807

  Assembling full basis from fixed parts.
  | Species S :   atomic orbital   1 s accepted.
  | Species S :   atomic orbital   2 s accepted.
  | Species S :    ionic orbital   3 s accepted.
  | Species S :   atomic orbital   3 s accepted.
  | Species S :   atomic orbital   2 p accepted.
  | Species S :   atomic orbital   3 p accepted.
  | Species S :    hydro orbital   2 p accepted.
  | Species S :    ionic orbital   3 d accepted.
  | Species S :    hydro orbital   4 f accepted.
  | Species H :   atomic orbital   1 s accepted.
  | Species H :    hydro orbital   2 s accepted.
  | Species H :    hydro orbital   2 p accepted.

  Basis size parameters after reduction:
  | Total number of radial functions:       12
  | Total number of basis functions :       40

  Per-task memory consumption for arrays in subroutine allocate_ext:
  |           4.170560MB.
  Testing on-site integration grid accuracy.
  |  Species  Function  <phi|h_atom|phi> (log., in eV)  <phi|h_atom|phi> (rad., in eV)
           1        1              -2413.0581659109              -2413.0570554886
           1        2               -211.6872814127               -211.6872738937
           1        3                -16.9208611991                -16.9208255642
           1        4                  7.5845503345                  7.5614252779
           1        5               -156.4548540501               -156.4548540107
           1        6                 -6.9485729304                 -6.9508389945
           1        7                  7.5803076288                  7.5258504832 ***
           1        8                  6.1173006980                  6.1127563631
           1        9                 24.7512183535                 24.7503558869
           2       10                 -6.4664147733                 -6.4652229287
           2       11                 13.7099062243                 13.7158503352
           2       12                 25.2661739479                 25.2663166526
 * Note: Onsite integrals marked "***" above are less accurate than
 * onsite_accuracy_threshold =    0.03000 eV. Usually, this is harmless.
 * When in doubt, tighten the "radial" and/or "radial_multiplier" flags to check.

  Preparing densities etc. for the partition functions (integrals / Hartree potential).

  Preparations completed.
  max(cpu_time)          :      0.116 s.
  Wall clock time (cpu1) :      0.115 s.
------------------------------------------------------------
  After prepare_scf [GB]:     22.30

  Initializing index lists of integration centers etc. from given atomic structure:
  Mapping all atomic coordinates to central unit cell.

  Initializing the k-points
  Using symmetry for reducing the k-points
  | k-points reduced from:        6 to        4
  | Number of k-points                             :         4
  The eigenvectors in the calculations are COMPLEX.
  | K-points in task   0:         1
  | K-points in task   1:         1
  | K-points in task   2:         1
  | K-points in task   3:         1
  | Number of basis functions in the Hamiltonian integrals       :       590
  | Number of basis functions in a single unit cell              :        40
  | Number of centers in hartree potential                       :       657
  | Number of centers in hartree multipole                       :       186
  | Number of centers in electron density summation              :       126
  | Number of centers in basis integrals                         :       151
  | Number of centers in integrals                               :        90
  | Number of centers in hamiltonian                             :       126
  | Number of centers in partition table from touching 0-cell    :        90
  | Number of centers in partition table total                   :       151
  | Consuming          3 KiB for k_phase.
  | Number of super-cells (origin) [n_cells]                     :         945
  | Number of super-cells (after PM_index) [n_cells]             :          53
  | Number of super-cells in hamiltonian [n_cells_in_hamiltonian]:          52
  | Size of matrix packed + index [n_hamiltonian_matrix_size]    :       11923
  After initialize_bc_dependent_lists [GB]:     22.27

------------------------------------------------------------
          Begin self-consistency loop: Initialization.

          Date     :  20260302, Time     :  113640.878
------------------------------------------------------------

  Initializing relaxation algorithms.
  Finished initialization of distributed Hessian storage.
  | Global dimension:        21
  | BLACS block size:         6
  | Number of workers:        4

  Available memory per node after initialize_hartree_non_periodic_ewald [GB]:     22.27
  | Estimated reciprocal-space cutoff momentum G_max:         1.84432723 bohr^-1 .
  | Reciprocal lattice points for long-range Hartree potential:     130
  Available memory per node after initialize_recip_hartree_potential [GB]:     22.27
  Available memory per node after initialize_scalapack [GB]:     22.27
  Available memory per node after aims_elsi_init_scf [GB]:     22.27
  Available memory per node after initialize_fixed_grids [GB]:     22.27
  Partitioning the integration grid into batches with parallel hashing+maxmin method.
  | Number of batches:      229
  | Maximal batch size:     192
  | Minimal batch size:      82
  | Average batch size:     100.734
  | Standard deviation of batch sizes:      28.867

  Integration load balanced across     4 MPI tasks.
  Work distribution over tasks is as follows:
  Task     0 has       5722 integration points.
  Task     1 has       5768 integration points.
  Task     2 has       5768 integration points.
  Task     3 has       5810 integration points.
  Available memory per node after partition_grid [GB]:     22.27
  Initializing partition tables, free-atom densities, potentials, etc. across the integration grid (initialize_grid_storage).
  | initialize_grid_storage: Actual outermost partition radius vs. multipole_radius_free
  | (-- VB: in principle, multipole_radius_free should be larger, hence this output)
  | Species        1: Confinement radius =              4.999999999999999 AA, multipole_radius_free =              5.005414751018925 AA.
  | Species        1: outer_partition_radius set to              5.005414751018925 AA .
  | Species        2: Confinement radius =              4.999999999999999 AA, multipole_radius_free =              5.054417573612229 AA.
  | Species        2: outer_partition_radius set to              5.054417573612229 AA .
  | The sparse table of interatomic distances needs         91.16 kbyte instead of       182.41 kbyte of memory.
  | Net number of integration points:    23068
  | of which are non-zero points    :    21446
  | Numerical average free-atom electrostatic potential    :     -1.90219812 eV
  Available memory per node after initialize_grid_storage_p1 [GB]:     22.27
  Renormalizing the initial density to the exact electron count on the 3D integration grid.
  | Initial density: Formal number of electrons (from input files) :      19.0000000000
  | Integrated number of electrons on 3D grid     :      19.0001767166
  | Charge integration error                      :       0.0001767166
  | Normalization factor for density and gradient :       0.9999906992
  Renormalizing the free-atom superposition density to the exact electron count on the 3D integration grid.
  | Formal number of electrons (from input files) :      19.0000000000
  | Integrated number of electrons on 3D grid     :      19.0001767166
  | Charge integration error                      :       0.0001767166
  | Normalization factor for density and gradient :       0.9999906992
  Obtaining max. number of non-zero basis functions in each batch (get_n_compute_maxes).
  | Maximal number of non-zero basis functions:      163 in task     0
  | Maximal number of non-zero basis functions:      171 in task     1
  | Maximal number of non-zero basis functions:      171 in task     2
  | Maximal number of non-zero basis functions:      171 in task     3
  Available memory per node after get_n_compute_maxes_p1 [GB]:     22.27
  Allocating        0.011 MB for KS_eigenvector_complex
  Available memory per node after allocate_matrices [GB]:     22.27
  Available memory per node after init_comm_sparse_local_matrix_scalapack [GB]:     22.27
  Integrating Hamiltonian matrix: batch-based integration.
  Time summed over all CPUs for integration: real work        0.121 s, elapsed        0.124 s
  Available memory per node after integrate hamiltonian matrix [GB]:     22.27
  Integrating overlap matrix.
  Time summed over all CPUs for integration: real work        0.060 s, elapsed        0.061 s
  Available memory per node after integrate ovlp matrix [GB]:     22.27
  Available memory per node after ASI_callbacks invoke [GB]:     22.27
  Available memory per node after save_overlap_scalapack [GB]:     22.27

  Updating Kohn-Sham eigenvalues and eigenvectors using ELSI and the (modified) LAPACK eigensolver.
  Singularity check in k-point 4, task 0 (analysis for other k-points/tasks may follow below):
  Overlap matrix is not singular
  | Lowest and highest eigenvalues :  0.5355E-01,  0.2010E+01
  Finished singularity check of overlap matrix
  | Time :     0.000 s
  Starting LAPACK eigensolver
  Finished Cholesky decomposition
  | Time :     0.000 s
  Finished transformation to standard eigenproblem
  | Time :     0.000 s
  Finished solving standard eigenproblem
  | Time :     0.001 s
  Finished back-transformation of eigenvectors
  | Time :     0.000 s

  Obtaining occupation numbers and electronic chemical potential using ELSI.
  | Note that, for insulating systems, the printed 'chemical potential' value is not uniquely defined.
  | It can be anywhere in the energy gap, as long as it correctly separates occupied and unoccupied states.
  | In systems with a gap, the physically relevant chemical potential is the VBM or HOMO.

  | Chemical potential (Fermi level):    -6.68857489 eV
  Available memory per node after advance_KS_solution [GB]:     22.27
  Writing Kohn-Sham eigenvalues.
  K-point:       1 at    0.000000    0.000000    0.000000 (in units of recip. lattice)

  State    Occupation    Eigenvalue [Ha]    Eigenvalue [eV]
      1       2.00000         -88.678918        -2413.07612
      2       2.00000          -7.780199         -211.70998
      3       2.00000          -5.750561         -156.48071
      4       2.00000          -5.750364         -156.47536
      5       2.00000          -5.750361         -156.47528
      6       2.00000          -0.668793          -18.19879
      7       2.00000          -0.438876          -11.94243
      8       2.00000          -0.286154           -7.78664
      9       2.00000          -0.284827           -7.75053
     10       2.00000          -0.268284           -7.30039
     11       0.00000          -0.120613           -3.28206
     12       0.00000           0.135543            3.68830
     13       0.00000           0.162683            4.42683
     14       0.00000           0.181978            4.95187
     15       0.00000           0.191948            5.22317
     16       0.00000           0.222136            6.04464
     17       0.00000           0.232301            6.32122
     18       0.00000           0.245213            6.67257

  What follows are estimated values for band gap, HOMO, LUMO, etc.
  | They are estimated on a discrete k-point grid and not necessarily exact.
  | For converged numbers, create a DOS and/or band structure plot on a denser k-grid.

  Highest occupied state (VBM) at     -6.70124044 eV (relative to internal zero)
  | Occupation number:      1.21247553
  | K-point:       4 at    0.333333    0.500000    0.000000 (in units of recip. lattice)

  Lowest unoccupied state (CBM) at    -6.53592191 eV (relative to internal zero)
  | Occupation number:     -0.05290897
  | K-point:       2 at    0.000000    0.500000    0.000000 (in units of recip. lattice)

  This system has fractional occupation numbers. Since we use a finite k-point grid,
  this material is metallic within the approximate finite broadening function (occupation_type)
  applied to determine the occupation numbers. We conclude: there is no gap in this system.
  ESTIMATED overall HOMO-LUMO gap:      0.00000000 eV.
  Calculating total energy contributions from superposition of free atom densities.

  Total energy components:
  | Sum of eigenvalues            :        -230.87440681 Ha       -6282.41225492 eV
  | XC energy correction          :         -26.32647941 Ha        -716.37995375 eV
  | XC potential correction       :          34.01029057 Ha         925.46709372 eV
  | Free-atom electrostatic energy:        -178.13830531 Ha       -4847.38991998 eV
  | Hartree energy correction     :          -0.00000000 Ha          -0.00000000 eV
  | Entropy correction            :          -0.00140541 Ha          -0.03824327 eV
  | ---------------------------
  | Total energy                  :        -401.32890096 Ha      -10920.71503493 eV
  | Total energy, T -> 0          :        -401.33077484 Ha      -10920.76602596 eV  <-- do not rely on this value for anything but (periodic) metals
  | Electronic free energy        :        -401.33171179 Ha      -10920.79152147 eV

  Derived energy quantities:
  | Kinetic energy                :         402.33926980 Ha       10948.20856998 eV
  | Electrostatic energy          :        -777.34169135 Ha      -21152.54365115 eV
  | Energy correction for multipole
  | error in Hartree potential    :           0.00000000 Ha           0.00000000 eV
  | Sum of eigenvalues per atom                           :       -1570.60306373 eV
  | Total energy (T->0) per atom                          :       -2730.19150649 eV  <-- do not rely on this value for anything but (periodic) metals
  | Electronic free energy per atom                       :       -2730.19788037 eV
  Initialize hartree_potential_storage
  Max. number of atoms included in rho_multipole:            4

  End scf initialization - timings             :  max(cpu_time)    wall_clock(cpu1)
  | Time for scf. initialization                :        0.111 s           0.111 s
  | Boundary condition initialization           :        0.009 s           0.009 s
  | Relaxation initialization                   :        0.000 s           0.001 s
  | Integration                                 :        0.047 s           0.047 s
  | Solution of K.-S. eqns.                     :        0.001 s           0.001 s
  | Grid partitioning                           :        0.016 s           0.016 s
  | Preloading free-atom quantities on grid     :        0.036 s           0.035 s
  | Free-atom superposition energy              :        0.010 s           0.011 s
  | Total energy evaluation                     :        0.000 s           0.000 s

  Partial memory accounting:
  | Current value for overall tracked memory usage:
  |   Minimum:        0.274 MB (on task 3)
  |   Maximum:        0.275 MB (on task 0)
  |   Average:        0.275 MB
  | Peak value for overall tracked memory usage:
  |   Minimum:        1.198 MB (on task 0 after allocating wave)
  |   Maximum:        1.253 MB (on task 1 after allocating wave)
  |   Average:        1.239 MB
  | Largest tracked array allocation so far:
  |   Minimum:        0.239 MB (H_times_psi on task 0)
  |   Maximum:        0.250 MB (H_times_psi on task 1)
  |   Average:        0.248 MB
  Note:  These values currently only include a subset of arrays which are explicitly tracked.
  The "true" memory usage will be greater.
------------------------------------------------------------
  Available memory after initialize_scf [GB]:     22.27
  Available memory after allocating mixing [GB]:     22.27
  Evaluating new KS density using the density matrix
  Evaluating density matrix
  Time summed over all CPUs for getting density from density matrix: real work        0.116 s, elapsed        0.119 s
  Integration grid: deviation in total charge (<rho> - N_e) =  -6.394885E-14

  Time for density update prior                :  max(cpu_time)    wall_clock(cpu1)
  | self-consistency iterative process          :        0.030 s           0.030 s
  Available memory before start of SCF loop [GB]:     22.27

------------------------------------------------------------
          Begin self-consistency iteration #    1

  Date     :  20260302, Time     :  113641.019
------------------------------------------------------------
  Pulay mixing of updated and previous charge densities.
  Available memory per node after mixing [GB]:     22.27
  Renormalizing the density to the exact electron count on the 3D integration grid.
  | Formal number of electrons (from input files) :      19.0000000000
  | Integrated number of electrons on 3D grid     :      19.0000000000
  | Charge integration error                      :       0.0000000000
  | Normalization factor for density and gradient :       1.0000000000

  Evaluating partitioned Hartree potential by multipole expansion.
  | Original multipole sum: apparent total charge =   0.179271E-13
  | Sum of charges compensated after spline to logarithmic grids =   0.454471E-06
  | Analytical far-field extrapolation by fixed multipoles:
  | Hartree multipole sum: apparent total charge =   0.179218E-13
  Summing up the Hartree potential.
  Time summed over all CPUs for potential: real work        0.023 s, elapsed        0.023 s
  | RMS charge density error from multipole expansion :   0.469931E-04
  | Average real-space part of the electrostatic potential :     -0.00097906 eV

  Integrating Hamiltonian matrix: batch-based integration.
  Time summed over all CPUs for integration: real work        0.082 s, elapsed        0.083 s

  Updating Kohn-Sham eigenvalues and eigenvectors using ELSI and the (modified) LAPACK eigensolver.
  Starting LAPACK eigensolver
  Finished Cholesky decomposition
  | Time :     0.000 s
  Finished transformation to standard eigenproblem
  | Time :     0.000 s
  Finished solving standard eigenproblem
  | Time :     0.001 s
  Finished back-transformation of eigenvectors
  | Time :     0.000 s

  Obtaining occupation numbers and electronic chemical potential using ELSI.
  | Note that, for insulating systems, the printed 'chemical potential' value is not uniquely defined.
  | It can be anywhere in the energy gap, as long as it correctly separates occupied and unoccupied states.
  | In systems with a gap, the physically relevant chemical potential is the VBM or HOMO.

  | Chemical potential (Fermi level):    -6.64464414 eV
  Writing Kohn-Sham eigenvalues.
  K-point:       1 at    0.000000    0.000000    0.000000 (in units of recip. lattice)

  State    Occupation    Eigenvalue [Ha]    Eigenvalue [eV]
      1       2.00000         -88.676118        -2412.99995
      2       2.00000          -7.777624         -211.63991
      3       2.00000          -5.747998         -156.41098
      4       2.00000          -5.747753         -156.40431
      5       2.00000          -5.747749         -156.40422
      6       2.00000          -0.666925          -18.14795
      7       2.00000          -0.437863          -11.91485
      8       2.00000          -0.284743           -7.74824
      9       2.00000          -0.283207           -7.70645
     10       2.00000          -0.270834           -7.36977
     11       0.00000          -0.118618           -3.22777
     12       0.00000           0.136623            3.71770
     13       0.00000           0.164118            4.46589
     14       0.00000           0.183290            4.98757
     15       0.00000           0.193062            5.25347
     16       0.00000           0.222532            6.05541
     17       0.00000           0.233362            6.35010
     18       0.00000           0.245939            6.69234

  What follows are estimated values for band gap, HOMO, LUMO, etc.
  | They are estimated on a discrete k-point grid and not necessarily exact.
  | For converged numbers, create a DOS and/or band structure plot on a denser k-grid.

  Highest occupied state (VBM) at     -6.65513527 eV (relative to internal zero)
  | Occupation number:      1.17648874
  | K-point:       4 at    0.333333    0.500000    0.000000 (in units of recip. lattice)

  Lowest unoccupied state (CBM) at    -6.56428582 eV (relative to internal zero)
  | Occupation number:      0.01808258
  | K-point:       2 at    0.000000    0.500000    0.000000 (in units of recip. lattice)

  This system has fractional occupation numbers. Since we use a finite k-point grid,
  this material is metallic within the approximate finite broadening function (occupation_type)
  applied to determine the occupation numbers. We conclude: there is no gap in this system.
  ESTIMATED overall HOMO-LUMO gap:      0.00000000 eV.

  Total energy components:
  | Sum of eigenvalues            :        -230.83672586 Ha       -6281.38690407 eV
  | XC energy correction          :         -26.32781793 Ha        -716.41637667 eV
  | XC potential correction       :          34.01208355 Ha         925.51588303 eV
  | Free-atom electrostatic energy:        -178.13830531 Ha       -4847.38991998 eV
  | Hartree energy correction     :          -0.03645961 Ha          -0.99211639 eV
  | Entropy correction            :          -0.00149157 Ha          -0.04058760 eV
  | ---------------------------
  | Total energy                  :        -401.32722516 Ha      -10920.66943407 eV
  | Total energy, T -> 0          :        -401.32921391 Ha      -10920.72355087 eV  <-- do not rely on this value for anything but (periodic) metals
  | Electronic free energy        :        -401.33020829 Ha      -10920.75060927 eV

  Derived energy quantities:
  | Kinetic energy                :         402.34946775 Ha       10948.48607026 eV
  | Electrostatic energy          :        -777.34887498 Ha      -21152.73912766 eV
  | Energy correction for multipole
  | error in Hartree potential    :           0.00000049 Ha           0.00001337 eV
  | Sum of eigenvalues per atom                           :       -1570.34672602 eV
  | Total energy (T->0) per atom                          :       -2730.18088772 eV  <-- do not rely on this value for anything but (periodic) metals
  | Electronic free energy per atom                       :       -2730.18765232 eV
  Evaluating new KS density using the density matrix
  Evaluating density matrix
  Time summed over all CPUs for getting density from density matrix: real work        0.098 s, elapsed        0.101 s
  Integration grid: deviation in total charge (<rho> - N_e) =  -2.131628E-14

  Self-consistency convergence accuracy:
  | Change of charge density      :  0.1132E+00
  | Change of unmixed KS density  :  0.2889E+02
  | Change of sum of eigenvalues  :  0.1025E+01 eV
  | Change of total energy        :  0.4560E-01 eV


------------------------------------------------------------
  End self-consistency iteration #     1       :  max(cpu_time)    wall_clock(cpu1)
  | Time for this iteration                     :        0.073 s           0.073 s
  | Charge density update                       :        0.026 s           0.025 s
  | Density mixing                              :        0.000 s           0.001 s
  | Hartree multipole update                    :        0.000 s           0.000 s
  | Hartree multipole summation                 :        0.025 s           0.025 s
  | Integration                                 :        0.021 s           0.021 s
  | Solution of K.-S. eqns.                     :        0.000 s           0.001 s
  | Total energy evaluation                     :        0.000 s           0.000 s

  Partial memory accounting:
  | Current value for overall tracked memory usage:
  |   Minimum:        4.160 MB (on task 0)
  |   Maximum:        4.220 MB (on task 3)
  |   Average:        4.191 MB
  | Peak value for overall tracked memory usage:
  |   Minimum:        5.796 MB (on task 0 after allocating gradient_basis_wave)
  |   Maximum:        5.946 MB (on task 3 after allocating gradient_basis_wave)
  |   Average:        5.894 MB
  | Largest tracked array allocation so far:
  |   Minimum:        1.310 MB (previous_rho_gradient_diff on task 0)
  |   Maximum:        1.330 MB (previous_rho_gradient_diff on task 3)
  |   Average:        1.320 MB
  Note:  These values currently only include a subset of arrays which are explicitly tracked.
  The "true" memory usage will be greater.
------------------------------------------------------------

------------------------------------------------------------
          Begin self-consistency iteration #    2

  Date     :  20260302, Time     :  113641.093
------------------------------------------------------------
  Pulay mixing of updated and previous charge densities.
  Available memory per node after mixing [GB]:     22.27
  Renormalizing the density to the exact electron count on the 3D integration grid.
  | Formal number of electrons (from input files) :      19.0000000000
  | Integrated number of electrons on 3D grid     :      19.0000000000
  | Charge integration error                      :      -0.0000000000
  | Normalization factor for density and gradient :       1.0000000000

  Evaluating partitioned Hartree potential by multipole expansion.
  | Original multipole sum: apparent total charge =  -0.322415E-13
  | Sum of charges compensated after spline to logarithmic grids =   0.207322E-05
  | Analytical far-field extrapolation by fixed multipoles:
  | Hartree multipole sum: apparent total charge =  -0.321431E-13
  Summing up the Hartree potential.
  Time summed over all CPUs for potential: real work        0.027 s, elapsed        0.027 s
  | RMS charge density error from multipole expansion :   0.396330E-03
  | Average real-space part of the electrostatic potential :     -0.00853482 eV

  Integrating Hamiltonian matrix: batch-based integration.
  Time summed over all CPUs for integration: real work        0.082 s, elapsed        0.084 s

  Updating Kohn-Sham eigenvalues and eigenvectors using ELSI and the (modified) LAPACK eigensolver.
  Starting LAPACK eigensolver
  Finished Cholesky decomposition
  | Time :     0.000 s
  Finished transformation to standard eigenproblem
  | Time :     0.000 s
  Finished solving standard eigenproblem
  | Time :     0.000 s
  Finished back-transformation of eigenvectors
  | Time :     0.000 s

  Obtaining occupation numbers and electronic chemical potential using ELSI.
  | Note that, for insulating systems, the printed 'chemical potential' value is not uniquely defined.
  | It can be anywhere in the energy gap, as long as it correctly separates occupied and unoccupied states.
  | In systems with a gap, the physically relevant chemical potential is the VBM or HOMO.

  | Chemical potential (Fermi level):    -6.43576399 eV
  What follows are estimated values for band gap, HOMO, LUMO, etc.
  | They are estimated on a discrete k-point grid and not necessarily exact.
  | For converged numbers, create a DOS and/or band structure plot on a denser k-grid.

  Highest occupied state (VBM) at     -6.63030356 eV (relative to internal zero)
  | Occupation number:      2.01899783
  | K-point:       3 at    0.333333    0.000000    0.000000 (in units of recip. lattice)

  Lowest unoccupied state (CBM) at    -6.42449274 eV (relative to internal zero)
  | Occupation number:      0.81056561
  | K-point:       3 at    0.333333    0.000000    0.000000 (in units of recip. lattice)

  This system has fractional occupation numbers. Since we use a finite k-point grid,
  this material is metallic within the approximate finite broadening function (occupation_type)
  applied to determine the occupation numbers. We conclude: there is no gap in this system.
  ESTIMATED overall HOMO-LUMO gap:      0.00000000 eV.

  Checking to see if s.c.f. parameters should be adjusted.

  Total energy components:
  | Sum of eigenvalues            :        -230.61635978 Ha       -6275.39043789 eV
  | XC energy correction          :         -26.33656715 Ha        -716.65445507 eV
  | XC potential correction       :          34.02378704 Ha         925.83435133 eV
  | Free-atom electrostatic energy:        -178.13830531 Ha       -4847.38991998 eV
  | Hartree energy correction     :          -0.26435741 Ha          -7.19353117 eV
  | Entropy correction            :          -0.00092116 Ha          -0.02506599 eV
  | ---------------------------
  | Total energy                  :        -401.33180261 Ha      -10920.79399278 eV
  | Total energy, T -> 0          :        -401.33303082 Ha      -10920.82741409 eV  <-- do not rely on this value for anything but (periodic) metals
  | Electronic free energy        :        -401.33364492 Ha      -10920.84412475 eV

  Derived energy quantities:
  | Kinetic energy                :         402.39408028 Ha       10949.70003894 eV
  | Electrostatic energy          :        -777.38931573 Ha      -21153.83957665 eV
  | Energy correction for multipole
  | error in Hartree potential    :           0.00000123 Ha           0.00003343 eV
  | Sum of eigenvalues per atom                           :       -1568.84760947 eV
  | Total energy (T->0) per atom                          :       -2730.20685352 eV  <-- do not rely on this value for anything but (periodic) metals
  | Electronic free energy per atom                       :       -2730.21103119 eV
  Evaluating new KS density using the density matrix
  Evaluating density matrix
  Time summed over all CPUs for getting density from density matrix: real work        0.098 s, elapsed        0.101 s
  Integration grid: deviation in total charge (<rho> - N_e) =   4.618528E-14

  Self-consistency convergence accuracy:
  | Change of charge density      :  0.1031E+00
  | Change of unmixed KS density  :  0.1058E-01
  | Change of sum of eigenvalues  :  0.5996E+01 eV
  | Change of total energy        : -0.1246E+00 eV


------------------------------------------------------------
  End self-consistency iteration #     2       :  max(cpu_time)    wall_clock(cpu1)
  | Time for this iteration                     :        0.077 s           0.077 s
  | Charge density update                       :        0.026 s           0.026 s
  | Density mixing                              :        0.000 s           0.000 s
  | Hartree multipole update                    :        0.000 s           0.000 s
  | Hartree multipole summation                 :        0.029 s           0.030 s
  | Integration                                 :        0.021 s           0.021 s
  | Solution of K.-S. eqns.                     :        0.000 s           0.000 s
  | Total energy evaluation                     :        0.000 s           0.000 s

  Partial memory accounting:
  | Current value for overall tracked memory usage:
  |   Minimum:        4.161 MB (on task 0)
  |   Maximum:        4.220 MB (on task 3)
  |   Average:        4.192 MB
  | Peak value for overall tracked memory usage:
  |   Minimum:        5.797 MB (on task 0 after allocating gradient_basis_wave)
  |   Maximum:        5.946 MB (on task 3 after allocating gradient_basis_wave)
  |   Average:        5.895 MB
  | Largest tracked array allocation so far:
  |   Minimum:        1.310 MB (previous_rho_gradient_diff on task 0)
  |   Maximum:        1.330 MB (previous_rho_gradient_diff on task 3)
  |   Average:        1.320 MB
  Note:  These values currently only include a subset of arrays which are explicitly tracked.
  The "true" memory usage will be greater.
------------------------------------------------------------

------------------------------------------------------------
          Begin self-consistency iteration #    3

  Date     :  20260302, Time     :  113641.170
------------------------------------------------------------
  Pulay mixing of updated and previous charge densities.
  Available memory per node after mixing [GB]:     22.27
  Renormalizing the density to the exact electron count on the 3D integration grid.
  | Formal number of electrons (from input files) :      19.0000000000
  | Integrated number of electrons on 3D grid     :      19.0000000000
  | Charge integration error                      :       0.0000000000
  | Normalization factor for density and gradient :       1.0000000000

  Evaluating partitioned Hartree potential by multipole expansion.
  | Original multipole sum: apparent total charge =   0.105770E-13
  | Sum of charges compensated after spline to logarithmic grids =   0.537467E-05
  | Analytical far-field extrapolation by fixed multipoles:
  | Hartree multipole sum: apparent total charge =   0.103065E-13
  Summing up the Hartree potential.
  Time summed over all CPUs for potential: real work        0.029 s, elapsed        0.029 s
  | RMS charge density error from multipole expansion :   0.817692E-03
  | Average real-space part of the electrostatic potential :     -0.01745756 eV

  Integrating Hamiltonian matrix: batch-based integration.
  Time summed over all CPUs for integration: real work        0.082 s, elapsed        0.084 s

  Updating Kohn-Sham eigenvalues and eigenvectors using ELSI and the (modified) LAPACK eigensolver.
  Starting LAPACK eigensolver
  Finished Cholesky decomposition
  | Time :     0.000 s
  Finished transformation to standard eigenproblem
  | Time :     0.000 s
  Finished solving standard eigenproblem
  | Time :     0.000 s
  Finished back-transformation of eigenvectors
  | Time :     0.000 s

  Obtaining occupation numbers and electronic chemical potential using ELSI.
  | Note that, for insulating systems, the printed 'chemical potential' value is not uniquely defined.
  | It can be anywhere in the energy gap, as long as it correctly separates occupied and unoccupied states.
  | In systems with a gap, the physically relevant chemical potential is the VBM or HOMO.

  | Chemical potential (Fermi level):    -6.02272349 eV
  What follows are estimated values for band gap, HOMO, LUMO, etc.
  | They are estimated on a discrete k-point grid and not necessarily exact.
  | For converged numbers, create a DOS and/or band structure plot on a denser k-grid.

  Highest occupied state (VBM) at     -6.03005212 eV (relative to internal zero)
  | Occupation number:      1.12367284
  | K-point:       3 at    0.333333    0.000000    0.000000 (in units of recip. lattice)

  Lowest unoccupied state (CBM) at    -5.91862254 eV (relative to internal zero)
  | Occupation number:     -0.05775250
  | K-point:       3 at    0.333333    0.000000    0.000000 (in units of recip. lattice)

  This system has fractional occupation numbers. Since we use a finite k-point grid,
  this material is metallic within the approximate finite broadening function (occupation_type)
  applied to determine the occupation numbers. We conclude: there is no gap in this system.
  ESTIMATED overall HOMO-LUMO gap:      0.00000000 eV.

  Total energy components:
  | Sum of eigenvalues            :        -230.30105694 Ha       -6266.81061127 eV
  | XC energy correction          :         -26.35059223 Ha        -717.03609709 eV
  | XC potential correction       :          34.04256103 Ha         926.34521745 eV
  | Free-atom electrostatic energy:        -178.13830531 Ha       -4847.38991998 eV
  | Hartree energy correction     :          -0.62492942 Ha         -17.00519485 eV
  | Entropy correction            :          -0.00059749 Ha          -0.01625855 eV
  | ---------------------------
  | Total energy                  :        -401.37232289 Ha      -10921.89660574 eV
  | Total energy, T -> 0          :        -401.37311954 Ha      -10921.91828380 eV  <-- do not rely on this value for anything but (periodic) metals
  | Electronic free energy        :        -401.37351787 Ha      -10921.92912283 eV

  Derived energy quantities:
  | Kinetic energy                :         402.43108842 Ha       10950.70708164 eV
  | Electrostatic energy          :        -777.45281907 Ha      -21155.56759028 eV
  | Energy correction for multipole
  | error in Hartree potential    :           0.00000381 Ha           0.00010354 eV
  | Sum of eigenvalues per atom                           :       -1566.70265282 eV
  | Total energy (T->0) per atom                          :       -2730.47957095 eV  <-- do not rely on this value for anything but (periodic) metals
  | Electronic free energy per atom                       :       -2730.48228071 eV
  Evaluating new KS density using the density matrix
  Evaluating density matrix
  Time summed over all CPUs for getting density from density matrix: real work        0.098 s, elapsed        0.101 s
  Integration grid: deviation in total charge (<rho> - N_e) =   6.750156E-14

  Self-consistency convergence accuracy:
  | Change of charge density      :  0.2090E+00
  | Change of unmixed KS density  :  0.2626E+00
  | Change of sum of eigenvalues  :  0.8580E+01 eV
  | Change of total energy        : -0.1103E+01 eV


------------------------------------------------------------
  End self-consistency iteration #     3       :  max(cpu_time)    wall_clock(cpu1)
  | Time for this iteration                     :        0.079 s           0.079 s
  | Charge density update                       :        0.025 s           0.025 s
  | Density mixing                              :        0.001 s           0.001 s
  | Hartree multipole update                    :        0.000 s           0.000 s
  | Hartree multipole summation                 :        0.031 s           0.031 s
  | Integration                                 :        0.021 s           0.021 s
  | Solution of K.-S. eqns.                     :        0.000 s           0.001 s
  | Total energy evaluation                     :        0.000 s           0.000 s

  Partial memory accounting:
  | Current value for overall tracked memory usage:
  |   Minimum:        4.161 MB (on task 0)
  |   Maximum:        4.220 MB (on task 3)
  |   Average:        4.192 MB
  | Peak value for overall tracked memory usage:
  |   Minimum:        5.797 MB (on task 0 after allocating gradient_basis_wave)
  |   Maximum:        5.947 MB (on task 3 after allocating gradient_basis_wave)
  |   Average:        5.895 MB
  | Largest tracked array allocation so far:
  |   Minimum:        1.310 MB (previous_rho_gradient_diff on task 0)
  |   Maximum:        1.330 MB (previous_rho_gradient_diff on task 3)
  |   Average:        1.320 MB
  Note:  These values currently only include a subset of arrays which are explicitly tracked.
  The "true" memory usage will be greater.
------------------------------------------------------------

------------------------------------------------------------
          Begin self-consistency iteration #    4

  Date     :  20260302, Time     :  113641.249
------------------------------------------------------------
  Pulay mixing of updated and previous charge densities.
  Available memory per node after mixing [GB]:     22.27
  Renormalizing the density to the exact electron count on the 3D integration grid.
  | Formal number of electrons (from input files) :      19.0000000000
  | Integrated number of electrons on 3D grid     :      19.0000000000
  | Charge integration error                      :       0.0000000000
  | Normalization factor for density and gradient :       1.0000000000

  Evaluating partitioned Hartree potential by multipole expansion.
  | Original multipole sum: apparent total charge =   0.154966E-13
  | Sum of charges compensated after spline to logarithmic grids =   0.929414E-05
  | Analytical far-field extrapolation by fixed multipoles:
  | Hartree multipole sum: apparent total charge =   0.152752E-13
  Summing up the Hartree potential.
  Time summed over all CPUs for potential: real work        0.030 s, elapsed        0.030 s
  | RMS charge density error from multipole expansion :   0.125956E-02
  | Average real-space part of the electrostatic potential :     -0.02624635 eV

  Integrating Hamiltonian matrix: batch-based integration.
  Time summed over all CPUs for integration: real work        0.090 s, elapsed        0.100 s

  Updating Kohn-Sham eigenvalues and eigenvectors using ELSI and the (modified) LAPACK eigensolver.
  Starting LAPACK eigensolver
  Finished Cholesky decomposition
  | Time :     0.000 s
  Finished transformation to standard eigenproblem
  | Time :     0.000 s
  Finished solving standard eigenproblem
  | Time :     0.000 s
  Finished back-transformation of eigenvectors
  | Time :     0.000 s

  Obtaining occupation numbers and electronic chemical potential using ELSI.
  | Note that, for insulating systems, the printed 'chemical potential' value is not uniquely defined.
  | It can be anywhere in the energy gap, as long as it correctly separates occupied and unoccupied states.
  | In systems with a gap, the physically relevant chemical potential is the VBM or HOMO.

  | Chemical potential (Fermi level):    -5.52985590 eV
  What follows are estimated values for band gap, HOMO, LUMO, etc.
  | They are estimated on a discrete k-point grid and not necessarily exact.
  | For converged numbers, create a DOS and/or band structure plot on a denser k-grid.

  Highest occupied state (VBM) at     -5.53586662 eV (relative to internal zero)
  | Occupation number:      1.10153163
  | K-point:       3 at    0.333333    0.000000    0.000000 (in units of recip. lattice)

  Lowest unoccupied state (CBM) at    -5.37897891 eV (relative to internal zero)
  | Occupation number:     -0.05451731
  | K-point:       4 at    0.333333    0.500000    0.000000 (in units of recip. lattice)

  This system has fractional occupation numbers. Since we use a finite k-point grid,
  this material is metallic within the approximate finite broadening function (occupation_type)
  applied to determine the occupation numbers. We conclude: there is no gap in this system.
  ESTIMATED overall HOMO-LUMO gap:      0.00000000 eV.

  Total energy components:
  | Sum of eigenvalues            :        -229.90069232 Ha       -6255.91613553 eV
  | XC energy correction          :         -26.36946544 Ha        -717.54966311 eV
  | XC potential correction       :          34.06780947 Ha         927.03226265 eV
  | Free-atom electrostatic energy:        -178.13830531 Ha       -4847.38991998 eV
  | Hartree energy correction     :          -1.09298145 Ha         -29.74153850 eV
  | Entropy correction            :          -0.00044621 Ha          -0.01214198 eV
  | ---------------------------
  | Total energy                  :        -401.43363505 Ha      -10923.56499446 eV
  | Total energy, T -> 0          :        -401.43422999 Ha      -10923.58118377 eV  <-- do not rely on this value for anything but (periodic) metals
  | Electronic free energy        :        -401.43452746 Ha      -10923.58927842 eV

  Derived energy quantities:
  | Kinetic energy                :         402.46494014 Ha       10951.62823384 eV
  | Electrostatic energy          :        -777.52910974 Ha      -21157.64356520 eV
  | Energy correction for multipole
  | error in Hartree potential    :           0.00000650 Ha           0.00017687 eV
  | Sum of eigenvalues per atom                           :       -1563.97903388 eV
  | Total energy (T->0) per atom                          :       -2730.89529594 eV  <-- do not rely on this value for anything but (periodic) metals
  | Electronic free energy per atom                       :       -2730.89731961 eV
  Evaluating new KS density using the density matrix
  Evaluating density matrix
  Time summed over all CPUs for getting density from density matrix: real work        0.107 s, elapsed        0.114 s
  Integration grid: deviation in total charge (<rho> - N_e) =   4.973799E-14

  Self-consistency convergence accuracy:
  | Change of charge density      :  0.2749E+00
  | Change of unmixed KS density  :  0.5546E-01
  | Change of sum of eigenvalues  :  0.1089E+02 eV
  | Change of total energy        : -0.1668E+01 eV


------------------------------------------------------------
  End self-consistency iteration #     4       :  max(cpu_time)    wall_clock(cpu1)
  | Time for this iteration                     :        0.088 s           0.088 s
  | Charge density update                       :        0.029 s           0.029 s
  | Density mixing                              :        0.001 s           0.001 s
  | Hartree multipole update                    :        0.000 s           0.000 s
  | Hartree multipole summation                 :        0.032 s           0.033 s
  | Integration                                 :        0.025 s           0.025 s
  | Solution of K.-S. eqns.                     :        0.000 s           0.000 s
  | Total energy evaluation                     :        0.000 s           0.000 s

  Partial memory accounting:
  | Current value for overall tracked memory usage:
  |   Minimum:        4.161 MB (on task 0)
  |   Maximum:        4.221 MB (on task 3)
  |   Average:        4.192 MB
  | Peak value for overall tracked memory usage:
  |   Minimum:        5.797 MB (on task 0 after allocating gradient_basis_wave)
  |   Maximum:        5.947 MB (on task 3 after allocating gradient_basis_wave)
  |   Average:        5.895 MB
  | Largest tracked array allocation so far:
  |   Minimum:        1.310 MB (previous_rho_gradient_diff on task 0)
  |   Maximum:        1.330 MB (previous_rho_gradient_diff on task 3)
  |   Average:        1.320 MB
  Note:  These values currently only include a subset of arrays which are explicitly tracked.
  The "true" memory usage will be greater.
------------------------------------------------------------

------------------------------------------------------------
          Begin self-consistency iteration #    5

  Date     :  20260302, Time     :  113641.338
------------------------------------------------------------
  Pulay mixing of updated and previous charge densities.
  Available memory per node after mixing [GB]:     22.26
  Renormalizing the density to the exact electron count on the 3D integration grid.
  | Formal number of electrons (from input files) :      19.0000000000
  | Integrated number of electrons on 3D grid     :      19.0000000000
  | Charge integration error                      :      -0.0000000000
  | Normalization factor for density and gradient :       1.0000000000

  Evaluating partitioned Hartree potential by multipole expansion.
  | Original multipole sum: apparent total charge =   0.112166E-13
  | Sum of charges compensated after spline to logarithmic grids =   0.133182E-04
  | Analytical far-field extrapolation by fixed multipoles:
  | Hartree multipole sum: apparent total charge =   0.113396E-13
  Summing up the Hartree potential.
  Time summed over all CPUs for potential: real work        0.031 s, elapsed        0.031 s
  | RMS charge density error from multipole expansion :   0.166167E-02
  | Average real-space part of the electrostatic potential :     -0.03784562 eV

  Integrating Hamiltonian matrix: batch-based integration.
  Time summed over all CPUs for integration: real work        0.090 s, elapsed        0.093 s

  Updating Kohn-Sham eigenvalues and eigenvectors using ELSI and the (modified) LAPACK eigensolver.
  Starting LAPACK eigensolver
  Finished Cholesky decomposition
  | Time :     0.000 s
  Finished transformation to standard eigenproblem
  | Time :     0.000 s
  Finished solving standard eigenproblem
  | Time :     0.000 s
  Finished back-transformation of eigenvectors
  | Time :     0.000 s

  Obtaining occupation numbers and electronic chemical potential using ELSI.
  | Note that, for insulating systems, the printed 'chemical potential' value is not uniquely defined.
  | It can be anywhere in the energy gap, as long as it correctly separates occupied and unoccupied states.
  | In systems with a gap, the physically relevant chemical potential is the VBM or HOMO.

  | Chemical potential (Fermi level):    -5.70917164 eV
  What follows are estimated values for band gap, HOMO, LUMO, etc.
  | They are estimated on a discrete k-point grid and not necessarily exact.
[...]
   ----------------------------------------------------------------
   Total forces(   4)            :  0.207855E-07  0.805179E-09 -0.842825E-06


  Analytical stress tensor components [eV]         xx                  yy                  zz                  xy                  xz                  yz
  -----------------------------------------------------------------------------------------------------------------------------------------------------------
    Nuclear Hellmann-Feynman      :    -0.7558471590E+02   -0.2376714028E+02   -0.1649754230E+02   -0.1255904540E-08   -0.2931202568E-08    0.6638609318E-08
    Multipole Hellmann-Feynman    :    -0.1661224655E+03   -0.6085789297E+02   -0.1999691889E+02   -0.1634157488E-08   -0.8301611877E-08   -0.1858854565E-06
    On-site Multipole corrections :    -0.2018554899E+00   -0.2130306902E+00   -0.2016615180E+00    0.7758109199E-11   -0.1749804069E-10   -0.2696245054E-09
    Strain deriv. of the orbitals :     0.2078319593E+03    0.6399858031E+02    0.3690717434E+02    0.1014055943E-08    0.9404757303E-08    0.9114191189E-07
  -----------------------------------------------------------------------------------------------------------------------------------------------------------
  Sum of all contributions        :    -0.3407707755E+02   -0.2083948364E+02    0.2110516331E+00   -0.1868247975E-08   -0.1845555183E-08   -0.8837455979E-07

  +-------------------------------------------------------------------+
  |              Analytical stress tensor - Symmetrized               |
  |                  Cartesian components [eV/A**3]                   |
  +-------------------------------------------------------------------+
  |                x                y                z                |
  |                                                                   |
  |  x        -1.07028848      -0.00000000      -0.00000000           |
  |  y        -0.00000000      -0.65452383      -0.00000000           |
  |  z        -0.00000000      -0.00000000       0.00662868           |
  |                                                                   |
  |  Pressure:       0.57272787   [eV/A**3]                           |
  |                                                                   |
  +-------------------------------------------------------------------+

 * Warning: Stress tensor is anisotropic. Be aware that pressure is an isotropic quantity.


  Self-consistency convergence accuracy:
  | Change of charge density      :  0.1186E-03
  | Change of unmixed KS density  :  0.3332E-03
  | Change of sum of eigenvalues  : -0.2380E-01 eV
  | Change of total energy        : -0.3659E-05 eV
  | Change of forces              :  0.8953E-06 eV/A

  Writing Kohn-Sham eigenvalues.
  K-point:       1 at    0.000000    0.000000    0.000000 (in units of recip. lattice)

  State    Occupation    Eigenvalue [Ha]    Eigenvalue [eV]
      1       2.00000         -88.675269        -2412.97683
      2       2.00000          -7.794607         -212.10206
      3       2.00000          -5.761240         -156.77130
      4       2.00000          -5.760903         -156.76215
      5       2.00000          -5.758504         -156.69687
      6       2.00000          -1.074662          -29.24304
      7       2.00000          -0.663902          -18.06570
      8       2.00000          -0.533039          -14.50473
      9       2.00000          -0.420505          -11.44253
     10       2.00000          -0.349342           -9.50607
     11      -0.00000          -0.105757           -2.87778
     12       0.00000           0.032635            0.88804
     13       0.00000           0.197521            5.37483
     14       0.00000           0.279439            7.60393
     15       0.00000           0.392577           10.68257
     16       0.00000           0.557249           15.16351
     17       0.00000           0.587129           15.97660
     18       0.00000           0.648819           17.65526

  What follows are estimated values for band gap, HOMO, LUMO, etc.
  | They are estimated on a discrete k-point grid and not necessarily exact.
  | For converged numbers, create a DOS and/or band structure plot on a denser k-grid.

  Highest occupied state (VBM) at     -6.06842043 eV (relative to internal zero)
  | Occupation number:      2.00000000
  | K-point:       3 at    0.333333    0.000000    0.000000 (in units of recip. lattice)

  Lowest unoccupied state (CBM) at    -4.25135797 eV (relative to internal zero)
  | Occupation number:     -0.00000000
  | K-point:       2 at    0.000000    0.500000    0.000000 (in units of recip. lattice)

  The gap value is above 0.2 eV. Unless you are using a very sparse k-point grid,
  this system is most likely an insulator or a semiconductor.
  ESTIMATED overall HOMO-LUMO gap:      1.81706246 eV between HOMO at k-point 3 and LUMO at k-point 2
  | This appears to be an indirect band gap.
  | Smallest direct gap :      3.29475121 eV for k_point 4 at    0.333333    0.500000    0.000000 (in units of recip. lattice)

  | Chemical Potential                          :    -5.15988920 eV
  | Note that, for insulating systems, the printed 'chemical potential' value is not uniquely defined.
  | It can be anywhere in the energy gap, as long as it correctly separates occupied and unoccupied states.
  | In systems with a gap, the physically relevant chemical potential is the VBM or HOMO.

  Self-consistency cycle converged.


------------------------------------------------------------
  End self-consistency iteration #     7       :  max(cpu_time)    wall_clock(cpu1)
  | Time for this iteration                     :       11.110 s          11.111 s
  | Charge density & force component update     :        9.803 s           9.803 s
  | Density mixing                              :        0.001 s           0.001 s
  | Hartree multipole update                    :        0.000 s           0.001 s
  | Hartree multipole summation                 :        0.572 s           0.572 s
  | Hartree pot. SCF incomplete forces          :        0.484 s           0.484 s
  | Integration                                 :        0.249 s           0.249 s
  | Solution of K.-S. eqns.                     :        0.001 s           0.001 s
  | Total energy evaluation                     :        0.000 s           0.000 s

  Partial memory accounting:
  | Current value for overall tracked memory usage:
  |   Minimum:        5.278 MB (on task 0)
  |   Maximum:        5.334 MB (on task 3)
  |   Average:        5.307 MB
  | Peak value for overall tracked memory usage:
  |   Minimum:       18.189 MB (on task 3 after allocating d_wave)
  |   Maximum:       18.691 MB (on task 2 after allocating d_wave)
  |   Average:       18.420 MB
  | Largest tracked array allocation so far:
  |   Minimum:        3.057 MB (hessian_basis_wave on task 3)
  |   Maximum:        3.161 MB (hessian_basis_wave on task 2)
  |   Average:        3.108 MB
  Note:  These values currently only include a subset of arrays which are explicitly tracked.
  The "true" memory usage will be greater.
------------------------------------------------------------
  Removing unitary transformations (pure translations, rotations) from forces on atoms.
  Atomic forces before filtering:
  | Net force on center of mass :   0.365764E-08 -0.728790E-08 -0.933511E-06 eV/A
  Atomic forces after filtering:
  | Net force on center of mass :  -0.162301E-16  0.000000E+00 -0.850707E-22 eV/A

  Energy and forces in a compact form:
  | Total energy uncorrected      :         -0.109169903763841E+05 eV
  | Total energy corrected        :         -0.109169903763841E+05 eV  <-- do not rely on this value for anything but (periodic) metals
  | Electronic free energy        :         -0.109169903763841E+05 eV
  Total atomic forces (unitary forces cleaned) [eV/Ang]:
  |    1         -0.172216181929105E-07         -0.484520886700475E-08          0.704335841082856E-07
  |    2          0.127534724826380E+00          0.111181514326226E-08          0.269511998517098E-06
  |    3         -0.127534727475856E+00          0.110623980864807E-08          0.269501268448607E-06
  |    4          0.198710943312950E-07          0.262715391509442E-08         -0.609446851073990E-06

  Summary for the variables related to the applied external pressure:
  | Cell volume                   :     31.83915201 A**3
  | External pressure             :      0.93622640 eV/A**3
  | Internal pressure             :      0.57272787 eV/A**3
  | Total pressure inside system  :     -0.36349853 eV/A**3
  Since the calculation is done at T = 0K, the Gibbs free energy is G = E_tot + p_ext * V:
  | Gibbs free energy             :  -0.108871817216722E+05 eV

  ------------------------------------ 
  Start decomposition of the XC Energy 
  ------------------------------------ 
  X and C from original XC functional choice 
  Hartree-Fock Energy :          0.000000000 Ha              0.000000000 eV
  X Energy            :        -26.357131875 Ha           -717.214049755 eV
  C Energy            :         -0.773088373 Ha            -21.036804963 eV
  XC Energy w/o HF    :        -27.130220247 Ha           -738.250854718 eV
  Total XC Energy     :        -27.130220247 Ha           -738.250854718 eV
  ------------------------------------ 
  LDA X and C from self-consistent density 
  X Energy LDA        :        -24.503700716 Ha           -666.779621868 eV
  C Energy LDA        :         -1.420551047 Ha            -38.655160736 eV
  ------------------------------------ 
  End decomposition of the XC Energy 
  ------------------------------------ 

------------------------------------------------------------
  Relaxation / MD: End force evaluation.       :  max(cpu_time)    wall_clock(cpu1)
  | Time for this force evaluation              :       17.609 s          17.609 s

------------------------------------------------------------
  Geometry optimization: Attempting to predict improved coordinates.

  +-------------------------------------------------------------------+
  | Generalized derivatives on lattice vectors [eV/A]                 |
  +-------------------------------------------------------------------+
  |lattice_vector      -2.65064633      -0.00000000      -0.00000000  |
  |lattice_vector      -0.00000000       3.28093936      -0.00000005  |
  |lattice_vector      -0.00000000      -0.00000002       4.15063651  |
  +-------------------------------------------------------------------+
  | Forces on lattice vectors cleaned from atomic contributions [eV/A]|
  +-------------------------------------------------------------------+
  |lattice_vector       2.65064633       0.00000000       0.00000000  |
  |lattice_vector       0.00000000      -3.28093936       0.00000005  |
  |lattice_vector       0.00000000       0.00000002      -4.15063651  |
  +-------------------------------------------------------------------+
  Removing unitary transformations (pure translations, rotations) from forces on atoms.
  Atomic forces before filtering:
  | Net force on center of mass :  -0.162301E-16  0.000000E+00 -0.850707E-22 eV/A
  Atomic forces after filtering:
  | Net force on center of mass :   0.736372E-17  0.000000E+00  0.000000E+00 eV/A
  Net remaining forces (excluding translations, rotations) in present geometry:
  || Forces on atoms   || =   0.127535E+00 eV/A.
  || Forces on lattice || =   0.415064E+01 eV/A^3.
  Maximum force component is  0.415064E+01 eV/A.
  Present geometry is not yet converged.

 * Maximum number of relaxation steps exceeded.
 * Aborting optimization.
------------------------------------------------------------
  Reminder: External pressure of  0.936E+00 eV/A**3 ( 0.150E+03 GPa) is applied to system.
  Final atomic structure:
                         x [A]             y [A]             z [A]
  lattice_vector         1.61033285        0.00000000        0.00000000
  lattice_vector         0.00000000        2.73372046        0.00000001
  lattice_vector         0.00000000        0.00000001        7.23255488

            atom        -0.00000000        1.36686023        0.00000001  H
            atom         1.20537229        0.00000000        3.61627744  H
            atom         0.40496056        0.00000000        3.61627744  H
            atom         0.80516642        0.00000000       -0.00000000  S

  Fractional coordinates:
                         L1                L2                L3
       atom_frac        -0.00000000        0.50000000        0.00000000  H
       atom_frac         0.74852369       -0.00000000        0.50000000  H
       atom_frac         0.25147631       -0.00000000        0.50000000  H
       atom_frac         0.50000000        0.00000000       -0.00000000  S
------------------------------------------------------------

------------------------------------------------------------------------------
  Final output of selected total energy values:

  The following output summarizes some interesting total energy values
  at the end of a run (AFTER all relaxation, molecular dynamics, etc.).

  | Total energy of the DFT / Hartree-Fock s.c.f. calculation      :         -10916.990376384 eV
  | Final zero-broadening corrected energy (caution - metals only) :         -10916.990376384 eV
  | For reference only, the value of 1 Hartree used in FHI-aims is :             27.211384500 eV
  | For reference only, the overall average (free atom contribution
  | + realspace contribution) of the electrostatic potential after
  | s.c.f. convergence is                                          :            -10.748114526 eV

  Before relying on these values, please be sure to understand exactly which
  total energy value is referred to by a given number. Different objects may
  all carry the same name 'total energy'. Definitions:

  Total energy of the DFT / Hartree-Fock s.c.f. calculation:
  | Note that this energy does not include ANY quantities calculated after the
  | s.c.f. cycle, in particular not ANY RPA, MP2, etc. many-body perturbation terms.

  Final zero-broadening corrected energy:
  | For metallic systems only, a broadening of the occupation numbers at the Fermi
  | level can be extrapolated back to zero broadening by an electron-gas inspired
  | formula. For all systems that are not real metals, this value can be
  | meaningless and should be avoided.

------------------------------------------------------------------------------
  Methods described in the following list of references were used in this FHI-aims run.
  If you publish the results, please make sure to cite these reference if they apply.
  FHI-aims is an academic code, and for our developers (often, Ph.D. students
  and postdocs), scientific credit in the community is essential.
  Thank you for helping us!

  For any use of FHI-aims, please cite:

    Volker Blum, Ralf Gehrke, Felix Hanke, Paula Havu, Ville Havu,
    Xinguo Ren, Karsten Reuter, and Matthias Scheffler
    'Ab initio molecular simulations with numeric atom-centered orbitals'
    Computer Physics Communications 180, 2175-2196 (2009)
    http://doi.org/10.1016/j.cpc.2009.06.022


  For the analytical stress tensor used in your run, please cite:

    Franz Knuth, Christian Carbogno, Viktor Atalla, Volker Blum, Matthias Scheffler
    'All-electron formalism for total energy strain derivatives and
    stress tensor components for numeric atom-centered orbitals'
    Computer Physics Communications 190, 33-50 (2015).
    http://doi.org/10.1016/j.cpc.2015.01.003


  The provided symmetry information was generated with SPGlib:

    Atsushi Togo, Yusuke Seto, Dimitar Pashov
    SPGlib 1.7.3 obtained from http://spglib.sourceforge.net
    Licence: New BSD license
    Copyright (C) 2008 Atsushi Togo


  The ELSI infrastructure was used in your run to solve the Kohn-Sham electronic structure.
  Please check out https://wordpress.elsi-interchange.org to learn more.
  If scalability is important for your project, please acknowledge ELSI by citing:

    V. W-z. Yu, F. Corsetti, A. Garcia, W. P. Huhn, M. Jacquelin, W. Jia,
    B. Lange, L. Lin, J. Lu, W. Mi, A. Seifitokaldani, A. Vazquez-Mayagoitia,
    C. Yang, H. Yang, and V. Blum
    'ELSI: A unified software interface for Kohn-Sham electronic structure solvers'
    Computer Physics Communications 222, 267-285 (2018).
    http://doi.org/10.1016/j.cpc.2017.09.007


  For the real-space grid partitioning and parallelization used in this calculation, please cite:

    Ville Havu, Volker Blum, Paula Havu, and Matthias Scheffler,
    'Efficient O(N) integration for all-electron electronic structure calculation'
    'using numerically tabulated basis functions'
    Journal of Computational Physics 228, 8367-8379 (2009).
    http://doi.org/10.1016/j.jcp.2009.08.008

  Of course, there are many other important community references, e.g., those cited in the
  above references. Our list is limited to references that describe implementations in the
  FHI-aims code. The reason is purely practical (length of this list) - please credit others as well.
------------------------------------------------------------
Warnings summary:

At least    2 warnings were raised during execution.

------------------------------------------------------------
          Leaving FHI-aims.
          Date     :  20260302, Time     :  113758.927

          Computational steps:
          | Number of self-consistency cycles          :          142
          | Number of SCF (re)initializations          :           11
          | Number of relaxation steps                 :           10

          Detailed time accounting                     :  max(cpu_time)    wall_clock(cpu1)
          | Total time                                  :       78.186 s          78.190 s
          | Preparation time                            :        0.116 s           0.115 s
          | Boundary condition initalization            :        0.114 s           0.113 s
          | Grid partitioning                           :        0.194 s           0.194 s
          | Preloading free-atom quantities on grid     :        1.518 s           1.517 s
          | Free-atom superposition energy              :        0.194 s           0.195 s
          | Total time for integrations                 :        9.482 s           9.485 s
          | Total time for solution of K.-S. equations  :        0.074 s           0.075 s
          | Total time for EV reorthonormalization      :        0.001 s           0.002 s
          | Total time for density & force components   :       41.220 s          41.216 s
          | Total time for mixing                       :        0.185 s           0.180 s
          | Total time for Hartree multipole update     :        0.070 s           0.069 s
          | Total time for Hartree multipole sum        :       15.829 s          15.825 s
          | Total time for total energy evaluation      :        0.012 s           0.018 s
          | Total time NSC force correction             :        8.941 s           8.937 s
          | Total time for scaled ZORA corrections      :        0.000 s           0.000 s

          Partial memory accounting:
          | Residual value for overall tracked memory usage across tasks:     0.000000 MB (should be 0.000000 MB)
          | Peak values for overall tracked memory usage:
          |   Minimum:       18.189 MB (on task 3 after allocating d_wave)
          |   Maximum:       18.691 MB (on task 2 after allocating d_wave)
          |   Average:       18.420 MB
          | Largest tracked array allocation:
          |   Minimum:        3.057 MB (hessian_basis_wave on task 3)
          |   Maximum:        3.161 MB (hessian_basis_wave on task 2)
          |   Average:        3.108 MB
          Note:  These values currently only include a subset of arrays which are explicitly tracked.
          The "true" memory usage will be greater.

          Have a nice day.
------------------------------------------------------------
